LAMMPS (17 Nov 2015)
WARNING: OMP_NUM_THREADS environment is not set. (../comm.cpp:90)
  using 1 OpenMP thread(s) per MPI task
# Input file for Stack Fault Energy surface of Nickel: originally Richard Glaze, 2014
# Modified Dec 2019 for generalised stacking faults

# --------------------- INITIALIZAITION ---------------------
read_restart ../../init/restart.opt
  orthogonal box = (0.00367712 0.00371523 0.0065003) to (68.974 69.6887 121.93)
  1 by 2 by 3 MPI processor grid
  53760 atoms

change_box all boundary p p s
variable sca equal 16
variable scb equal 28
variable scc equal 10
variable latparam1 equal 3.52
variable x_displace equal -1.6350712198987472
variable xdim equal ${latparam1}*sqrt(6)/2*${sca}
variable xdim equal 3.52*sqrt(6)/2*${sca}
variable xdim equal 3.52*sqrt(6)/2*16
variable ydim equal ${latparam1}*sqrt(2)/2*${scb}
variable ydim equal 3.52*sqrt(2)/2*${scb}
variable ydim equal 3.52*sqrt(2)/2*28
variable zmid equal ${latparam1}*sqrt(3)*${scc}
variable zmid equal 3.52*sqrt(3)*${scc}
variable zmid equal 3.52*sqrt(3)*10
variable ztop equal ${zmid}*2
variable ztop equal 60.9681884264245*2
# --------------------- ATOM DEFINITION ---------------------
# Not needed because restarted
# --------------------- FORCE FIELDS ---------------------
pair_style eam/alloy
pair_coeff * * ../../../NiAlCoCrMoTiWTa.set Ni Ni
#pair_coeff * * Ni99.eam.alloy Ni Ni
# Also not needed because restarted
# --------------------- SETTINGS ---------------------
compute peratom all pe/atom
compute eatoms all reduce sum c_peratom
compute csym all centro/atom fcc
thermo 1
thermo_style custom step pe c_eatoms
#dump 1 all custom 1 dump.relax.1.* id type xs ys zs c_peratom c_csym
run 0
WARNING: No fixes defined, atoms won't move (../verlet.cpp:55)
Neighbor list info ...
  2 neighbor list requests
  update every 1 steps, delay 10 steps, check yes
  max neighbors/atom: 2000, page size: 100000
  master list distance cutoff = 8.56034
  ghost atom cutoff = 8.56034
  binsize = 4.28017 -> bins = 17 17 29
Memory usage per processor = 5.21199 Mbytes
Step PotEng eatoms 
       2   -238159.28   -238159.28 
Loop time of 3.17891e-06 on 6 procs for 0 steps with 53760 atoms

157.3% CPU use with 6 MPI tasks x 1 OpenMP threads

MPI task timing breakdown:
Section |  min time  |  avg time  |  max time  |%varavg| %total
---------------------------------------------------------------
Pair    | 0          | 0          | 0          |   0.0 |  0.00
Neigh   | 0          | 0          | 0          |   0.0 |  0.00
Comm    | 0          | 0          | 0          |   0.0 |  0.00
Output  | 0          | 0          | 0          |   0.0 |  0.00
Modify  | 0          | 0          | 0          |   0.0 |  0.00
Other   |            | 3.179e-06  |            |       |100.00

Nlocal:    8960 ave 8960 max 8960 min
Histogram: 6 0 0 0 0 0 0 0 0 0
Nghost:    11638.3 ave 13811 max 10552 min
Histogram: 4 0 0 0 0 0 0 0 0 2
Neighs:    977984 ave 1.00355e+06 max 941536 min
Histogram: 2 0 0 0 0 0 0 2 0 2
FullNghs:  0 ave 0 max 0 min
Histogram: 6 0 0 0 0 0 0 0 0 0

Total # of neighbors = 5867904
Ave neighs/atom = 109.15
Neighbor list builds = 0
Dangerous builds = 0
#this command creates a model of the script before the displacement and minimization occur
variable E equal "c_eatoms"
variable Eo equal $E
variable Eo equal -238159.276198223
#variable E equal "c_eatoms" computes the initial energy of the model before any sliding is done
#E is necessary to store the initial energy in Eo
#group bot region 1
#group top region 2
# Groups are preserved after restart
displace_atoms top move ${x_displace} 0.0 0.0 units box
displace_atoms top move -1.63507121989875 0.0 0.0 units box

#displace_atoms is the command neccessary to move atoms into the next stacking arrangement (ie: A -> B)

fix 1 all setforce 0 0 NULL
min_style cg
minimize 1e-10 1e-10 1000 1000
WARNING: Resetting reneighboring criteria during minimization (../min.cpp:168)
Neighbor list info ...
  2 neighbor list requests
  update every 1 steps, delay 0 steps, check yes
  max neighbors/atom: 2000, page size: 100000
  master list distance cutoff = 8.56034
  ghost atom cutoff = 8.56034
  binsize = 4.28017 -> bins = 17 17 29
Memory usage per processor = 7.71199 Mbytes
Step PotEng eatoms 
       2   -238108.16   -238108.16 
       3   -238109.53   -238109.53 
       4   -238110.03   -238110.03 
       5   -238110.36   -238110.36 
       6   -238110.53   -238110.53 
       7   -238110.71   -238110.71 
       8   -238110.82   -238110.82 
       9   -238110.88   -238110.88 
      10   -238110.94   -238110.94 
      11   -238110.99   -238110.99 
      12   -238111.03   -238111.03 
      13   -238111.06   -238111.06 
      14   -238111.09   -238111.09 
      15   -238111.11   -238111.11 
      16   -238111.13   -238111.13 
      17   -238111.14   -238111.14 
      18   -238111.16   -238111.16 
      19   -238111.17   -238111.17 
      20   -238111.18   -238111.18 
      21    -238111.2    -238111.2 
      22    -238111.2    -238111.2 
      23   -238111.21   -238111.21 
      24   -238111.22   -238111.22 
      25   -238111.23   -238111.23 
      26   -238111.24   -238111.24 
      27   -238111.24   -238111.24 
      28   -238111.25   -238111.25 
      29   -238111.25   -238111.25 
      30   -238111.26   -238111.26 
      31   -238111.27   -238111.27 
      32   -238111.28   -238111.28 
      33   -238111.31   -238111.31 
      34   -238111.33   -238111.33 
      35   -238111.35   -238111.35 
      36   -238111.37   -238111.37 
      37   -238111.38   -238111.38 
      38   -238111.38   -238111.38 
      39   -238111.39   -238111.39 
      40   -238111.39   -238111.39 
      41   -238111.39   -238111.39 
      42    -238111.4    -238111.4 
      43    -238111.4    -238111.4 
      44    -238111.4    -238111.4 
      45    -238111.4    -238111.4 
      46    -238111.4    -238111.4 
      47    -238111.4    -238111.4 
      48    -238111.4    -238111.4 
      49    -238111.4    -238111.4 
      50    -238111.4    -238111.4 
      51    -238111.4    -238111.4 
      52    -238111.4    -238111.4 
      53    -238111.4    -238111.4 
      54    -238111.4    -238111.4 
      55    -238111.4    -238111.4 
      56    -238111.4    -238111.4 
      57    -238111.4    -238111.4 
      58    -238111.4    -238111.4 
      59    -238111.4    -238111.4 
      60    -238111.4    -238111.4 
      61    -238111.4    -238111.4 
      62    -238111.4    -238111.4 
      63    -238111.4    -238111.4 
Loop time of 5.9768 on 6 procs for 61 steps with 53760 atoms

99.8% CPU use with 6 MPI tasks x 1 OpenMP threads

Minimization stats:
  Stopping criterion = energy tolerance
  Energy initial, next-to-last, final = 
        -238108.156046     -238111.401449     -238111.401461
  Force two-norm initial, final = 6.10968 0.00952718
  Force max component initial, final = 0.123323 0.00011166
  Final line search alpha, max atom move = 1 0.00011166
  Iterations, force evaluations = 61 122

MPI task timing breakdown:
Section |  min time  |  avg time  |  max time  |%varavg| %total
---------------------------------------------------------------
Pair    | 4.559      | 5.0101     | 5.2561     |  14.0 | 83.83
Neigh   | 0          | 0          | 0          |   0.0 |  0.00
Comm    | 0.54952    | 0.79825    | 1.2561     |  35.6 | 13.36
Output  | 0.02222    | 0.022545   | 0.023922   |   0.4 |  0.38
Modify  | 0.0085464  | 0.0093578  | 0.010744   |   0.9 |  0.16
Other   |            | 0.1365     |            |       |  2.28

Nlocal:    8960 ave 8960 max 8960 min
Histogram: 6 0 0 0 0 0 0 0 0 0
Nghost:    11722.3 ave 13895 max 10552 min
Histogram: 4 0 0 0 0 0 0 0 0 2
Neighs:    980373 ave 1.01069e+06 max 941568 min
Histogram: 2 0 0 0 0 0 2 0 0 2
FullNghs:  0 ave 0 max 0 min
Histogram: 6 0 0 0 0 0 0 0 0 0

Total # of neighbors = 5882240
Ave neighs/atom = 109.417
Neighbor list builds = 0
Dangerous builds = 0
variable Ef equal "c_eatoms"
variable Cf equal 1.60217657e-16
variable A equal (cella*cellb)*1e-20
variable SFE equal ((${Ef}-${Eo})*${Cf})/${A}
variable SFE equal ((-238111.401460509-${Eo})*${Cf})/${A}
variable SFE equal ((-238111.401460509--238159.276198223)*${Cf})/${A}
variable SFE equal ((-238111.401460509--238159.276198223)*1.60217657e-16)/${A}
variable SFE equal ((-238111.401460509--238159.276198223)*1.60217657e-16)/4.80619470511564e-17

#variable Ef equal "c_eatoms" computes the final energy of the system after sliding is done
#variable A is the area of the Stacking fault plane
#variable Cf is the conversion factor of electro volts to millijoules
#variable SFE is the stacking-fault energy of the system
####################################
# SIMULATION DONE
print "All done"
All done
print "Initial energy of atoms = ${Eo} eV"
Initial energy of atoms = -238159.276198223 eV
print "Final energy of atoms = ${Ef} eV"
Final energy of atoms = -238111.401460509 eV
print "Stacking-fault energy = ${SFE} mJ/m^2"
Stacking-fault energy = 159.593582379506 mJ/m^2
Total wall time: 0:00:06
