LAMMPS (17 Nov 2015)
WARNING: OMP_NUM_THREADS environment is not set. (../comm.cpp:90)
  using 1 OpenMP thread(s) per MPI task
# Input file for Stack Fault Energy surface of Nickel: originally Richard Glaze, 2014
# Modified Dec 2019 for generalised stacking faults

# --------------------- INITIALIZAITION ---------------------
read_restart ../../init/restart.opt
  orthogonal box = (-0.305467 -0.308632 -0.539994) to (69.2831 70.0011 122.476)
  1 by 2 by 3 MPI processor grid
  53760 atoms

change_box all boundary p p s
variable sca equal 16
variable scb equal 28
variable scc equal 10
variable latparam1 equal 3.52
variable x_displace equal -0.07498767726095103
variable xdim equal ${latparam1}*sqrt(6)/2*${sca}
variable xdim equal 3.52*sqrt(6)/2*${sca}
variable xdim equal 3.52*sqrt(6)/2*16
variable ydim equal ${latparam1}*sqrt(2)/2*${scb}
variable ydim equal 3.52*sqrt(2)/2*${scb}
variable ydim equal 3.52*sqrt(2)/2*28
variable zmid equal ${latparam1}*sqrt(3)*${scc}
variable zmid equal 3.52*sqrt(3)*${scc}
variable zmid equal 3.52*sqrt(3)*10
variable ztop equal ${zmid}*2
variable ztop equal 60.9681884264245*2
# --------------------- ATOM DEFINITION ---------------------
# Not needed because restarted
# --------------------- FORCE FIELDS ---------------------
pair_style eam/alloy
pair_coeff * * ../../../NiAlCoCrMoTiWTa.set Al Co Ni
#pair_coeff * * Ni99.eam.alloy Ni Ni
# Also not needed because restarted
# --------------------- SETTINGS ---------------------
compute peratom all pe/atom
compute eatoms all reduce sum c_peratom
compute csym all centro/atom fcc
thermo 1
thermo_style custom step pe c_eatoms
#dump 1 all custom 1 dump.relax.1.* id type xs ys zs c_peratom c_csym
run 0
WARNING: No fixes defined, atoms won't move (../verlet.cpp:55)
Neighbor list info ...
  2 neighbor list requests
  update every 1 steps, delay 10 steps, check yes
  max neighbors/atom: 2000, page size: 100000
  master list distance cutoff = 8.56034
  ghost atom cutoff = 8.56034
  binsize = 4.28017 -> bins = 17 17 29
Memory usage per processor = 5.18855 Mbytes
Step PotEng eatoms 
      38   -234482.26   -234482.26 
Loop time of 3.25839e-06 on 6 procs for 0 steps with 53760 atoms

153.5% CPU use with 6 MPI tasks x 1 OpenMP threads

MPI task timing breakdown:
Section |  min time  |  avg time  |  max time  |%varavg| %total
---------------------------------------------------------------
Pair    | 0          | 0          | 0          |   0.0 |  0.00
Neigh   | 0          | 0          | 0          |   0.0 |  0.00
Comm    | 0          | 0          | 0          |   0.0 |  0.00
Output  | 0          | 0          | 0          |   0.0 |  0.00
Modify  | 0          | 0          | 0          |   0.0 |  0.00
Other   |            | 3.258e-06  |            |       |100.00

Nlocal:    8960 ave 9125 max 8849 min
Histogram: 2 1 0 0 1 0 1 0 0 1
Nghost:    12178 ave 14551 max 10965 min
Histogram: 4 0 0 0 0 0 0 0 0 2
Neighs:    976936 ave 1.02163e+06 max 917197 min
Histogram: 1 1 0 0 0 0 1 1 0 2
FullNghs:  0 ave 0 max 0 min
Histogram: 6 0 0 0 0 0 0 0 0 0

Total # of neighbors = 5861616
Ave neighs/atom = 109.033
Neighbor list builds = 0
Dangerous builds = 0
#this command creates a model of the script before the displacement and minimization occur
variable E equal "c_eatoms"
variable Eo equal $E
variable Eo equal -234482.259789123
#variable E equal "c_eatoms" computes the initial energy of the model before any sliding is done
#E is necessary to store the initial energy in Eo
#group bot region 1
#group top region 2
# Groups are preserved after restart
displace_atoms top move ${x_displace} 0.0 0.0 units box
displace_atoms top move -0.074987677260951 0.0 0.0 units box

#displace_atoms is the command neccessary to move atoms into the next stacking arrangement (ie: A -> B)

fix 1 all setforce 0 0 NULL
min_style cg
minimize 1e-10 1e-10 1000 1000
WARNING: Resetting reneighboring criteria during minimization (../min.cpp:168)
Neighbor list info ...
  2 neighbor list requests
  update every 1 steps, delay 0 steps, check yes
  max neighbors/atom: 2000, page size: 100000
  master list distance cutoff = 8.56034
  ghost atom cutoff = 8.56034
  binsize = 4.28017 -> bins = 17 17 29
Memory usage per processor = 7.68855 Mbytes
Step PotEng eatoms 
      38   -234478.46   -234478.46 
      39   -234494.82   -234494.82 
      40   -234504.07   -234504.07 
      41   -234508.98   -234508.98 
      42    -234511.4    -234511.4 
      43   -234513.74   -234513.74 
      44   -234514.12   -234514.12 
      45   -234514.85   -234514.85 
      46    -234515.1    -234515.1 
      47   -234515.19   -234515.19 
      48   -234515.29   -234515.29 
      49   -234515.36   -234515.36 
      50   -234515.42   -234515.42 
      51   -234515.45   -234515.45 
      52   -234515.47   -234515.47 
      53   -234515.49   -234515.49 
      54   -234515.51   -234515.51 
      55   -234515.52   -234515.52 
      56   -234515.53   -234515.53 
      57   -234515.54   -234515.54 
      58   -234515.54   -234515.54 
      59   -234515.55   -234515.55 
      60   -234515.55   -234515.55 
      61   -234515.56   -234515.56 
      62   -234515.56   -234515.56 
      63   -234515.56   -234515.56 
      64   -234515.57   -234515.57 
      65   -234515.57   -234515.57 
      66   -234515.57   -234515.57 
      67   -234515.57   -234515.57 
      68   -234515.57   -234515.57 
      69   -234515.57   -234515.57 
      70   -234515.57   -234515.57 
      71   -234515.57   -234515.57 
      72   -234515.57   -234515.57 
      73   -234515.58   -234515.58 
      74   -234515.58   -234515.58 
      75   -234515.58   -234515.58 
      76   -234515.58   -234515.58 
      77   -234515.58   -234515.58 
      78   -234515.58   -234515.58 
      79   -234515.58   -234515.58 
      80   -234515.58   -234515.58 
      81   -234515.58   -234515.58 
      82   -234515.58   -234515.58 
      83   -234515.58   -234515.58 
      84   -234515.58   -234515.58 
      85   -234515.58   -234515.58 
      86   -234515.58   -234515.58 
      87   -234515.58   -234515.58 
      88   -234515.58   -234515.58 
      89   -234515.58   -234515.58 
      90   -234515.58   -234515.58 
      91   -234515.58   -234515.58 
      92   -234515.58   -234515.58 
      93   -234515.58   -234515.58 
      94   -234515.58   -234515.58 
      95   -234515.58   -234515.58 
      96   -234515.58   -234515.58 
      97   -234515.58   -234515.58 
      98   -234515.58   -234515.58 
      99   -234515.58   -234515.58 
Loop time of 7.10061 on 6 procs for 61 steps with 53760 atoms

99.9% CPU use with 6 MPI tasks x 1 OpenMP threads

Minimization stats:
  Stopping criterion = energy tolerance
  Energy initial, next-to-last, final = 
        -234478.460114     -234515.579396     -234515.579418
  Force two-norm initial, final = 18.6736 0.0149544
  Force max component initial, final = 1.57974 0.000416388
  Final line search alpha, max atom move = 1 0.000416388
  Iterations, force evaluations = 61 116

MPI task timing breakdown:
Section |  min time  |  avg time  |  max time  |%varavg| %total
---------------------------------------------------------------
Pair    | 5.204      | 5.7554     | 6.8385     |  29.2 | 81.06
Neigh   | 0          | 0          | 0          |   0.0 |  0.00
Comm    | 0.084717   | 1.1765     | 1.7344     |  65.2 | 16.57
Output  | 0.024129   | 0.024398   | 0.025615   |   0.3 |  0.34
Modify  | 0.0083244  | 0.0096004  | 0.010872   |   0.9 |  0.14
Other   |            | 0.1347     |            |       |  1.90

Nlocal:    8960 ave 9125 max 8849 min
Histogram: 2 1 0 0 1 0 1 0 0 1
Nghost:    12178.3 ave 14551 max 10966 min
Histogram: 4 0 0 0 0 0 0 0 0 2
Neighs:    976941 ave 1.02179e+06 max 917059 min
Histogram: 1 1 0 0 0 0 1 1 0 2
FullNghs:  0 ave 0 max 0 min
Histogram: 6 0 0 0 0 0 0 0 0 0

Total # of neighbors = 5861646
Ave neighs/atom = 109.034
Neighbor list builds = 0
Dangerous builds = 0
variable Ef equal "c_eatoms"
variable Cf equal 1.60217657e-16
variable A equal (cella*cellb)*1e-20
variable SFE equal ((${Ef}-${Eo})*${Cf})/${A}
variable SFE equal ((-234515.579417529-${Eo})*${Cf})/${A}
variable SFE equal ((-234515.579417529--234482.259789123)*${Cf})/${A}
variable SFE equal ((-234515.579417529--234482.259789123)*1.60217657e-16)/${A}
variable SFE equal ((-234515.579417529--234482.259789123)*1.60217657e-16)/4.89275170426208e-17

#variable Ef equal "c_eatoms" computes the final energy of the system after sliding is done
#variable A is the area of the Stacking fault plane
#variable Cf is the conversion factor of electro volts to millijoules
#variable SFE is the stacking-fault energy of the system
####################################
# SIMULATION DONE
print "All done"
All done
print "Initial energy of atoms = ${Eo} eV"
Initial energy of atoms = -234482.259789123 eV
print "Final energy of atoms = ${Ef} eV"
Final energy of atoms = -234515.579417529 eV
print "Stacking-fault energy = ${SFE} mJ/m^2"
Stacking-fault energy = -109.108189378771 mJ/m^2
Total wall time: 0:00:07
