LAMMPS (17 Nov 2015)
WARNING: OMP_NUM_THREADS environment is not set. (../comm.cpp:90)
  using 1 OpenMP thread(s) per MPI task
# Input file for Stack Fault Energy surface of Nickel: originally Richard Glaze, 2014
# Modified Dec 2019 for generalised stacking faults

# --------------------- INITIALIZAITION ---------------------
read_restart ../../init/restart.opt
  orthogonal box = (0.00367712 0.00371523 0.0065003) to (68.974 69.6887 121.93)
  1 by 2 by 3 MPI processor grid
  53760 atoms

change_box all boundary p p s
variable sca equal 16
variable scb equal 28
variable scc equal 10
variable latparam1 equal 3.52
variable x_displace equal -0.4459285145178404
variable xdim equal ${latparam1}*sqrt(6)/2*${sca}
variable xdim equal 3.52*sqrt(6)/2*${sca}
variable xdim equal 3.52*sqrt(6)/2*16
variable ydim equal ${latparam1}*sqrt(2)/2*${scb}
variable ydim equal 3.52*sqrt(2)/2*${scb}
variable ydim equal 3.52*sqrt(2)/2*28
variable zmid equal ${latparam1}*sqrt(3)*${scc}
variable zmid equal 3.52*sqrt(3)*${scc}
variable zmid equal 3.52*sqrt(3)*10
variable ztop equal ${zmid}*2
variable ztop equal 60.9681884264245*2
# --------------------- ATOM DEFINITION ---------------------
# Not needed because restarted
# --------------------- FORCE FIELDS ---------------------
pair_style eam/alloy
pair_coeff * * ../../../NiAlCoCrMoTiWTa.set Ni Ni
#pair_coeff * * Ni99.eam.alloy Ni Ni
# Also not needed because restarted
# --------------------- SETTINGS ---------------------
compute peratom all pe/atom
compute eatoms all reduce sum c_peratom
compute csym all centro/atom fcc
thermo 1
thermo_style custom step pe c_eatoms
#dump 1 all custom 1 dump.relax.1.* id type xs ys zs c_peratom c_csym
run 0
WARNING: No fixes defined, atoms won't move (../verlet.cpp:55)
Neighbor list info ...
  2 neighbor list requests
  update every 1 steps, delay 10 steps, check yes
  max neighbors/atom: 2000, page size: 100000
  master list distance cutoff = 8.56034
  ghost atom cutoff = 8.56034
  binsize = 4.28017 -> bins = 17 17 29
Memory usage per processor = 5.21199 Mbytes
Step PotEng eatoms 
       2   -238159.28   -238159.28 
Loop time of 3.17891e-06 on 6 procs for 0 steps with 53760 atoms

194.0% CPU use with 6 MPI tasks x 1 OpenMP threads

MPI task timing breakdown:
Section |  min time  |  avg time  |  max time  |%varavg| %total
---------------------------------------------------------------
Pair    | 0          | 0          | 0          |   0.0 |  0.00
Neigh   | 0          | 0          | 0          |   0.0 |  0.00
Comm    | 0          | 0          | 0          |   0.0 |  0.00
Output  | 0          | 0          | 0          |   0.0 |  0.00
Modify  | 0          | 0          | 0          |   0.0 |  0.00
Other   |            | 3.179e-06  |            |       |100.00

Nlocal:    8960 ave 8960 max 8960 min
Histogram: 6 0 0 0 0 0 0 0 0 0
Nghost:    11638.3 ave 13811 max 10552 min
Histogram: 4 0 0 0 0 0 0 0 0 2
Neighs:    977984 ave 1.00355e+06 max 941536 min
Histogram: 2 0 0 0 0 0 0 2 0 2
FullNghs:  0 ave 0 max 0 min
Histogram: 6 0 0 0 0 0 0 0 0 0

Total # of neighbors = 5867904
Ave neighs/atom = 109.15
Neighbor list builds = 0
Dangerous builds = 0
#this command creates a model of the script before the displacement and minimization occur
variable E equal "c_eatoms"
variable Eo equal $E
variable Eo equal -238159.276198223
#variable E equal "c_eatoms" computes the initial energy of the model before any sliding is done
#E is necessary to store the initial energy in Eo
#group bot region 1
#group top region 2
# Groups are preserved after restart
displace_atoms top move ${x_displace} 0.0 0.0 units box
displace_atoms top move -0.44592851451784 0.0 0.0 units box

#displace_atoms is the command neccessary to move atoms into the next stacking arrangement (ie: A -> B)

fix 1 all setforce 0 0 NULL
min_style cg
minimize 1e-10 1e-10 1000 1000
WARNING: Resetting reneighboring criteria during minimization (../min.cpp:168)
Neighbor list info ...
  2 neighbor list requests
  update every 1 steps, delay 0 steps, check yes
  max neighbors/atom: 2000, page size: 100000
  master list distance cutoff = 8.56034
  ghost atom cutoff = 8.56034
  binsize = 4.28017 -> bins = 17 17 29
Memory usage per processor = 7.71199 Mbytes
Step PotEng eatoms 
       2   -238103.08   -238103.08 
       3   -238105.45   -238105.45 
       4   -238105.88   -238105.88 
       5   -238106.11   -238106.11 
       6   -238106.22   -238106.22 
       7   -238106.33   -238106.33 
       8   -238106.38   -238106.38 
       9   -238106.42   -238106.42 
      10   -238106.45   -238106.45 
      11   -238106.47   -238106.47 
      12   -238106.49   -238106.49 
      13   -238106.51   -238106.51 
      14   -238106.52   -238106.52 
      15   -238106.54   -238106.54 
      16   -238106.55   -238106.55 
      17   -238106.55   -238106.55 
      18   -238106.56   -238106.56 
      19   -238106.57   -238106.57 
      20   -238106.57   -238106.57 
      21   -238106.58   -238106.58 
      22   -238106.58   -238106.58 
      23   -238106.59   -238106.59 
      24   -238106.59   -238106.59 
      25   -238106.59   -238106.59 
      26    -238106.6    -238106.6 
      27    -238106.6    -238106.6 
      28    -238106.6    -238106.6 
      29   -238106.61   -238106.61 
      30   -238106.61   -238106.61 
      31   -238106.61   -238106.61 
      32   -238106.62   -238106.62 
      33   -238106.62   -238106.62 
      34   -238106.63   -238106.63 
      35   -238106.64   -238106.64 
      36   -238106.65   -238106.65 
      37   -238106.66   -238106.66 
      38   -238106.66   -238106.66 
      39   -238106.67   -238106.67 
      40   -238106.67   -238106.67 
      41   -238106.67   -238106.67 
      42   -238106.67   -238106.67 
      43   -238106.67   -238106.67 
      44   -238106.67   -238106.67 
      45   -238106.67   -238106.67 
      46   -238106.67   -238106.67 
      47   -238106.67   -238106.67 
      48   -238106.67   -238106.67 
      49   -238106.68   -238106.68 
      50   -238106.68   -238106.68 
      51   -238106.68   -238106.68 
      52   -238106.68   -238106.68 
      53   -238106.68   -238106.68 
      54   -238106.68   -238106.68 
      55   -238106.68   -238106.68 
      56   -238106.68   -238106.68 
      57   -238106.68   -238106.68 
      58   -238106.68   -238106.68 
      59   -238106.68   -238106.68 
      60   -238106.68   -238106.68 
      61   -238106.68   -238106.68 
      62   -238106.68   -238106.68 
      63   -238106.68   -238106.68 
      64   -238106.68   -238106.68 
      65   -238106.68   -238106.68 
Loop time of 7.7725 on 6 procs for 63 steps with 53760 atoms

99.9% CPU use with 6 MPI tasks x 1 OpenMP threads

Minimization stats:
  Stopping criterion = energy tolerance
  Energy initial, next-to-last, final = 
        -238103.075367     -238106.675909     -238106.675914
  Force two-norm initial, final = 9.20431 0.00387132
  Force max component initial, final = 0.208151 4.44081e-05
  Final line search alpha, max atom move = 1 4.44081e-05
  Iterations, force evaluations = 63 126

MPI task timing breakdown:
Section |  min time  |  avg time  |  max time  |%varavg| %total
---------------------------------------------------------------
Pair    | 5.7236     | 6.2883     | 7.2989     |  23.0 | 80.90
Neigh   | 0          | 0          | 0          |   0.0 |  0.00
Comm    | 0.28592    | 1.3034     | 1.8738     |  50.7 | 16.77
Output  | 0.025956   | 0.026253   | 0.027575   |   0.4 |  0.34
Modify  | 0.0092845  | 0.010513   | 0.010975   |   0.6 |  0.14
Other   |            | 0.1441     |            |       |  1.85

Nlocal:    8960 ave 8960 max 8960 min
Histogram: 6 0 0 0 0 0 0 0 0 0
Nghost:    11722.3 ave 13895 max 10552 min
Histogram: 4 0 0 0 0 0 0 0 0 2
Neighs:    979179 ave 1.0079e+06 max 940768 min
Histogram: 2 0 0 0 0 0 0 2 0 2
FullNghs:  0 ave 0 max 0 min
Histogram: 6 0 0 0 0 0 0 0 0 0

Total # of neighbors = 5875072
Ave neighs/atom = 109.283
Neighbor list builds = 0
Dangerous builds = 0
variable Ef equal "c_eatoms"
variable Cf equal 1.60217657e-16
variable A equal (cella*cellb)*1e-20
variable SFE equal ((${Ef}-${Eo})*${Cf})/${A}
variable SFE equal ((-238106.675913596-${Eo})*${Cf})/${A}
variable SFE equal ((-238106.675913596--238159.276198223)*${Cf})/${A}
variable SFE equal ((-238106.675913596--238159.276198223)*1.60217657e-16)/${A}
variable SFE equal ((-238106.675913596--238159.276198223)*1.60217657e-16)/4.80619470511564e-17

#variable Ef equal "c_eatoms" computes the final energy of the system after sliding is done
#variable A is the area of the Stacking fault plane
#variable Cf is the conversion factor of electro volts to millijoules
#variable SFE is the stacking-fault energy of the system
####################################
# SIMULATION DONE
print "All done"
All done
print "Initial energy of atoms = ${Eo} eV"
Initial energy of atoms = -238159.276198223 eV
print "Final energy of atoms = ${Ef} eV"
Final energy of atoms = -238106.675913596 eV
print "Stacking-fault energy = ${SFE} mJ/m^2"
Stacking-fault energy = 175.346503367846 mJ/m^2
Total wall time: 0:00:07
