LAMMPS (17 Nov 2015)
WARNING: OMP_NUM_THREADS environment is not set. (../comm.cpp:90)
  using 1 OpenMP thread(s) per MPI task
# Input file for Stack Fault Energy surface of Nickel: originally Richard Glaze, 2014
# Modified Dec 2019 for generalised stacking faults

# --------------------- INITIALIZAITION ---------------------
read_restart ../../init/restart.opt
  orthogonal box = (0.00367712 0.00371523 0.0065003) to (68.974 69.6887 121.93)
  1 by 2 by 3 MPI processor grid
  53760 atoms

change_box all boundary p p s
variable sca equal 16
variable scb equal 28
variable scc equal 10
variable latparam1 equal 3.52
variable x_displace equal -2.155321153502894
variable xdim equal ${latparam1}*sqrt(6)/2*${sca}
variable xdim equal 3.52*sqrt(6)/2*${sca}
variable xdim equal 3.52*sqrt(6)/2*16
variable ydim equal ${latparam1}*sqrt(2)/2*${scb}
variable ydim equal 3.52*sqrt(2)/2*${scb}
variable ydim equal 3.52*sqrt(2)/2*28
variable zmid equal ${latparam1}*sqrt(3)*${scc}
variable zmid equal 3.52*sqrt(3)*${scc}
variable zmid equal 3.52*sqrt(3)*10
variable ztop equal ${zmid}*2
variable ztop equal 60.9681884264245*2
# --------------------- ATOM DEFINITION ---------------------
# Not needed because restarted
# --------------------- FORCE FIELDS ---------------------
pair_style eam/alloy
pair_coeff * * ../../../NiAlCoCrMoTiWTa.set Ni Ni
#pair_coeff * * Ni99.eam.alloy Ni Ni
# Also not needed because restarted
# --------------------- SETTINGS ---------------------
compute peratom all pe/atom
compute eatoms all reduce sum c_peratom
compute csym all centro/atom fcc
thermo 1
thermo_style custom step pe c_eatoms
#dump 1 all custom 1 dump.relax.1.* id type xs ys zs c_peratom c_csym
run 0
WARNING: No fixes defined, atoms won't move (../verlet.cpp:55)
Neighbor list info ...
  2 neighbor list requests
  update every 1 steps, delay 10 steps, check yes
  max neighbors/atom: 2000, page size: 100000
  master list distance cutoff = 8.56034
  ghost atom cutoff = 8.56034
  binsize = 4.28017 -> bins = 17 17 29
Memory usage per processor = 5.21199 Mbytes
Step PotEng eatoms 
       2   -238159.28   -238159.28 
Loop time of 3.33786e-06 on 6 procs for 0 steps with 53760 atoms

159.8% CPU use with 6 MPI tasks x 1 OpenMP threads

MPI task timing breakdown:
Section |  min time  |  avg time  |  max time  |%varavg| %total
---------------------------------------------------------------
Pair    | 0          | 0          | 0          |   0.0 |  0.00
Neigh   | 0          | 0          | 0          |   0.0 |  0.00
Comm    | 0          | 0          | 0          |   0.0 |  0.00
Output  | 0          | 0          | 0          |   0.0 |  0.00
Modify  | 0          | 0          | 0          |   0.0 |  0.00
Other   |            | 3.338e-06  |            |       |100.00

Nlocal:    8960 ave 8960 max 8960 min
Histogram: 6 0 0 0 0 0 0 0 0 0
Nghost:    11638.3 ave 13811 max 10552 min
Histogram: 4 0 0 0 0 0 0 0 0 2
Neighs:    977984 ave 1.00355e+06 max 941536 min
Histogram: 2 0 0 0 0 0 0 2 0 2
FullNghs:  0 ave 0 max 0 min
Histogram: 6 0 0 0 0 0 0 0 0 0

Total # of neighbors = 5867904
Ave neighs/atom = 109.15
Neighbor list builds = 0
Dangerous builds = 0
#this command creates a model of the script before the displacement and minimization occur
variable E equal "c_eatoms"
variable Eo equal $E
variable Eo equal -238159.276198223
#variable E equal "c_eatoms" computes the initial energy of the model before any sliding is done
#E is necessary to store the initial energy in Eo
#group bot region 1
#group top region 2
# Groups are preserved after restart
displace_atoms top move ${x_displace} 0.0 0.0 units box
displace_atoms top move -2.15532115350289 0.0 0.0 units box

#displace_atoms is the command neccessary to move atoms into the next stacking arrangement (ie: A -> B)

fix 1 all setforce 0 0 NULL
min_style cg
minimize 1e-10 1e-10 1000 1000
WARNING: Resetting reneighboring criteria during minimization (../min.cpp:168)
Neighbor list info ...
  2 neighbor list requests
  update every 1 steps, delay 0 steps, check yes
  max neighbors/atom: 2000, page size: 100000
  master list distance cutoff = 8.56034
  ghost atom cutoff = 8.56034
  binsize = 4.28017 -> bins = 17 17 29
Memory usage per processor = 7.71199 Mbytes
Step PotEng eatoms 
       2    -237863.2    -237863.2 
       3   -237924.62   -237924.62 
       4   -237936.96   -237936.96 
       5   -237941.96   -237941.96 
       6   -237945.26   -237945.26 
       7   -237947.63   -237947.63 
       8   -237948.92   -237948.92 
       9   -237950.03   -237950.03 
      10   -237950.94   -237950.94 
      11   -237951.55   -237951.55 
      12   -237952.11   -237952.11 
      13   -237952.58   -237952.58 
      14   -237952.94   -237952.94 
      15   -237953.28   -237953.28 
      16   -237953.57   -237953.57 
      17    -237953.8    -237953.8 
      18   -237954.01   -237954.01 
      19   -237954.21   -237954.21 
      20   -237954.38   -237954.38 
      21   -237954.54   -237954.54 
      22   -237954.68   -237954.68 
      23   -237954.81   -237954.81 
      24   -237954.93   -237954.93 
      25   -237955.03   -237955.03 
      26   -237955.13   -237955.13 
      27   -237955.23   -237955.23 
      28   -237955.31   -237955.31 
      29   -237955.39   -237955.39 
      30   -237955.46   -237955.46 
      31   -237955.53   -237955.53 
      32    -237955.6    -237955.6 
      33   -237955.74   -237955.74 
      34   -237955.93   -237955.93 
      35   -237956.19   -237956.19 
      36   -237956.59   -237956.59 
      37    -237956.8    -237956.8 
      38   -237957.02   -237957.02 
      39   -237957.13   -237957.13 
      40   -237957.23   -237957.23 
      41   -237957.29   -237957.29 
      42   -237957.33   -237957.33 
      43   -237957.36   -237957.36 
      44   -237957.39   -237957.39 
      45    -237957.4    -237957.4 
      46   -237957.42   -237957.42 
      47   -237957.43   -237957.43 
      48   -237957.43   -237957.43 
      49   -237957.44   -237957.44 
      50   -237957.44   -237957.44 
      51   -237957.45   -237957.45 
      52   -237957.45   -237957.45 
      53   -237957.45   -237957.45 
      54   -237957.46   -237957.46 
      55   -237957.46   -237957.46 
      56   -237957.46   -237957.46 
      57   -237957.46   -237957.46 
      58   -237957.46   -237957.46 
      59   -237957.46   -237957.46 
      60   -237957.46   -237957.46 
      61   -237957.47   -237957.47 
      62   -237957.47   -237957.47 
      63   -237957.47   -237957.47 
      64   -237957.47   -237957.47 
      65   -237957.47   -237957.47 
      66   -237957.47   -237957.47 
      67   -237957.47   -237957.47 
      68   -237957.47   -237957.47 
      69   -237957.47   -237957.47 
Loop time of 6.46812 on 6 procs for 67 steps with 53760 atoms

99.9% CPU use with 6 MPI tasks x 1 OpenMP threads

Minimization stats:
  Stopping criterion = energy tolerance
  Energy initial, next-to-last, final = 
         -237863.19686     -237957.473239     -237957.473261
  Force two-norm initial, final = 54.2787 0.0183031
  Force max component initial, final = 1.28066 0.000201003
  Final line search alpha, max atom move = 1 0.000201003
  Iterations, force evaluations = 67 134

MPI task timing breakdown:
Section |  min time  |  avg time  |  max time  |%varavg| %total
---------------------------------------------------------------
Pair    | 5.0137     | 5.3786     | 6.1581     |  17.6 | 83.16
Neigh   | 0          | 0          | 0          |   0.0 |  0.00
Comm    | 0.12178    | 0.91043    | 1.2824     |  43.3 | 14.08
Output  | 0.024302   | 0.024593   | 0.025907   |   0.4 |  0.38
Modify  | 0.0089161  | 0.010162   | 0.012116   |   1.1 |  0.16
Other   |            | 0.1443     |            |       |  2.23

Nlocal:    8960 ave 8960 max 8960 min
Histogram: 6 0 0 0 0 0 0 0 0 0
Nghost:    11642.3 ave 13815 max 10552 min
Histogram: 4 0 0 0 0 0 0 0 0 2
Neighs:    982016 ave 1.01562e+06 max 941564 min
Histogram: 2 0 0 0 0 0 2 0 0 2
FullNghs:  0 ave 0 max 0 min
Histogram: 6 0 0 0 0 0 0 0 0 0

Total # of neighbors = 5892096
Ave neighs/atom = 109.6
Neighbor list builds = 0
Dangerous builds = 0
variable Ef equal "c_eatoms"
variable Cf equal 1.60217657e-16
variable A equal (cella*cellb)*1e-20
variable SFE equal ((${Ef}-${Eo})*${Cf})/${A}
variable SFE equal ((-237957.473260438-${Eo})*${Cf})/${A}
variable SFE equal ((-237957.473260438--238159.276198223)*${Cf})/${A}
variable SFE equal ((-237957.473260438--238159.276198223)*1.60217657e-16)/${A}
variable SFE equal ((-237957.473260438--238159.276198223)*1.60217657e-16)/4.80619470511564e-17

#variable Ef equal "c_eatoms" computes the final energy of the system after sliding is done
#variable A is the area of the Stacking fault plane
#variable Cf is the conversion factor of electro volts to millijoules
#variable SFE is the stacking-fault energy of the system
####################################
# SIMULATION DONE
print "All done"
All done
print "Initial energy of atoms = ${Eo} eV"
Initial energy of atoms = -238159.276198223 eV
print "Final energy of atoms = ${Ef} eV"
Final energy of atoms = -237957.473260438 eV
print "Stacking-fault energy = ${SFE} mJ/m^2"
Stacking-fault energy = 672.723346667866 mJ/m^2
Total wall time: 0:00:06
