LAMMPS (17 Nov 2015)
WARNING: OMP_NUM_THREADS environment is not set. (../comm.cpp:90)
  using 1 OpenMP thread(s) per MPI task
# Input file for Stack Fault Energy surface of Nickel: originally Richard Glaze, 2014
# Modified Dec 2019 for generalised stacking faults

# --------------------- INITIALIZAITION ---------------------
read_restart ../../init/restart.opt
  orthogonal box = (0.00367712 0.00371523 0.0065003) to (68.974 69.6887 121.93)
  1 by 2 by 3 MPI processor grid
  53760 atoms

change_box all boundary p p s
variable sca equal 16
variable scb equal 28
variable scc equal 10
variable latparam1 equal 3.52
variable x_displace equal -0.8918570290356808
variable xdim equal ${latparam1}*sqrt(6)/2*${sca}
variable xdim equal 3.52*sqrt(6)/2*${sca}
variable xdim equal 3.52*sqrt(6)/2*16
variable ydim equal ${latparam1}*sqrt(2)/2*${scb}
variable ydim equal 3.52*sqrt(2)/2*${scb}
variable ydim equal 3.52*sqrt(2)/2*28
variable zmid equal ${latparam1}*sqrt(3)*${scc}
variable zmid equal 3.52*sqrt(3)*${scc}
variable zmid equal 3.52*sqrt(3)*10
variable ztop equal ${zmid}*2
variable ztop equal 60.9681884264245*2
# --------------------- ATOM DEFINITION ---------------------
# Not needed because restarted
# --------------------- FORCE FIELDS ---------------------
pair_style eam/alloy
pair_coeff * * ../../../NiAlCoCrMoTiWTa.set Ni Ni
#pair_coeff * * Ni99.eam.alloy Ni Ni
# Also not needed because restarted
# --------------------- SETTINGS ---------------------
compute peratom all pe/atom
compute eatoms all reduce sum c_peratom
compute csym all centro/atom fcc
thermo 1
thermo_style custom step pe c_eatoms
#dump 1 all custom 1 dump.relax.1.* id type xs ys zs c_peratom c_csym
run 0
WARNING: No fixes defined, atoms won't move (../verlet.cpp:55)
Neighbor list info ...
  2 neighbor list requests
  update every 1 steps, delay 10 steps, check yes
  max neighbors/atom: 2000, page size: 100000
  master list distance cutoff = 8.56034
  ghost atom cutoff = 8.56034
  binsize = 4.28017 -> bins = 17 17 29
Memory usage per processor = 5.21199 Mbytes
Step PotEng eatoms 
       2   -238159.28   -238159.28 
Loop time of 3.69549e-06 on 6 procs for 0 steps with 53760 atoms

139.8% CPU use with 6 MPI tasks x 1 OpenMP threads

MPI task timing breakdown:
Section |  min time  |  avg time  |  max time  |%varavg| %total
---------------------------------------------------------------
Pair    | 0          | 0          | 0          |   0.0 |  0.00
Neigh   | 0          | 0          | 0          |   0.0 |  0.00
Comm    | 0          | 0          | 0          |   0.0 |  0.00
Output  | 0          | 0          | 0          |   0.0 |  0.00
Modify  | 0          | 0          | 0          |   0.0 |  0.00
Other   |            | 3.695e-06  |            |       |100.00

Nlocal:    8960 ave 8960 max 8960 min
Histogram: 6 0 0 0 0 0 0 0 0 0
Nghost:    11638.3 ave 13811 max 10552 min
Histogram: 4 0 0 0 0 0 0 0 0 2
Neighs:    977984 ave 1.00355e+06 max 941536 min
Histogram: 2 0 0 0 0 0 0 2 0 2
FullNghs:  0 ave 0 max 0 min
Histogram: 6 0 0 0 0 0 0 0 0 0

Total # of neighbors = 5867904
Ave neighs/atom = 109.15
Neighbor list builds = 0
Dangerous builds = 0
#this command creates a model of the script before the displacement and minimization occur
variable E equal "c_eatoms"
variable Eo equal $E
variable Eo equal -238159.276198223
#variable E equal "c_eatoms" computes the initial energy of the model before any sliding is done
#E is necessary to store the initial energy in Eo
#group bot region 1
#group top region 2
# Groups are preserved after restart
displace_atoms top move ${x_displace} 0.0 0.0 units box
displace_atoms top move -0.891857029035681 0.0 0.0 units box

#displace_atoms is the command neccessary to move atoms into the next stacking arrangement (ie: A -> B)

fix 1 all setforce 0 0 NULL
min_style cg
minimize 1e-10 1e-10 1000 1000
WARNING: Resetting reneighboring criteria during minimization (../min.cpp:168)
Neighbor list info ...
  2 neighbor list requests
  update every 1 steps, delay 0 steps, check yes
  max neighbors/atom: 2000, page size: 100000
  master list distance cutoff = 8.56034
  ghost atom cutoff = 8.56034
  binsize = 4.28017 -> bins = 17 17 29
Memory usage per processor = 7.71199 Mbytes
Step PotEng eatoms 
       2   -238078.53   -238078.53 
       3    -238082.6    -238082.6 
       4   -238083.64   -238083.64 
       5   -238084.22   -238084.22 
       6   -238084.54   -238084.54 
       7   -238084.87   -238084.87 
       8   -238085.02   -238085.02 
       9   -238085.14   -238085.14 
      10   -238085.26   -238085.26 
      11   -238085.33   -238085.33 
      12   -238085.38   -238085.38 
      13   -238085.44   -238085.44 
      14   -238085.48   -238085.48 
      15   -238085.52   -238085.52 
      16   -238085.55   -238085.55 
      17   -238085.58   -238085.58 
      18    -238085.6    -238085.6 
      19   -238085.62   -238085.62 
      20   -238085.64   -238085.64 
      21   -238085.66   -238085.66 
      22   -238085.68   -238085.68 
      23   -238085.69   -238085.69 
      24    -238085.7    -238085.7 
      25   -238085.72   -238085.72 
      26   -238085.73   -238085.73 
      27   -238085.74   -238085.74 
      28   -238085.75   -238085.75 
      29   -238085.76   -238085.76 
      30   -238085.76   -238085.76 
      31   -238085.77   -238085.77 
      32   -238085.79   -238085.79 
      33   -238085.81   -238085.81 
      34   -238085.85   -238085.85 
      35   -238085.89   -238085.89 
      36   -238085.92   -238085.92 
      37   -238085.94   -238085.94 
      38   -238085.95   -238085.95 
      39   -238085.96   -238085.96 
      40   -238085.97   -238085.97 
      41   -238085.97   -238085.97 
      42   -238085.98   -238085.98 
      43   -238085.98   -238085.98 
      44   -238085.98   -238085.98 
      45   -238085.98   -238085.98 
      46   -238085.98   -238085.98 
      47   -238085.98   -238085.98 
      48   -238085.98   -238085.98 
      49   -238085.98   -238085.98 
      50   -238085.99   -238085.99 
      51   -238085.99   -238085.99 
      52   -238085.99   -238085.99 
      53   -238085.99   -238085.99 
      54   -238085.99   -238085.99 
      55   -238085.99   -238085.99 
      56   -238085.99   -238085.99 
      57   -238085.99   -238085.99 
      58   -238085.99   -238085.99 
      59   -238085.99   -238085.99 
      60   -238085.99   -238085.99 
      61   -238085.99   -238085.99 
      62   -238085.99   -238085.99 
      63   -238085.99   -238085.99 
      64   -238085.99   -238085.99 
Loop time of 5.8744 on 6 procs for 62 steps with 53760 atoms

100.0% CPU use with 6 MPI tasks x 1 OpenMP threads

Minimization stats:
  Stopping criterion = energy tolerance
  Energy initial, next-to-last, final = 
        -238078.529596     -238085.987556     -238085.987572
  Force two-norm initial, final = 11.8363 0.00726395
  Force max component initial, final = 0.272068 9.3872e-05
  Final line search alpha, max atom move = 1 9.3872e-05
  Iterations, force evaluations = 62 124

MPI task timing breakdown:
Section |  min time  |  avg time  |  max time  |%varavg| %total
---------------------------------------------------------------
Pair    | 4.3976     | 4.8576     | 5.1226     |  12.8 | 82.69
Neigh   | 0          | 0          | 0          |   0.0 |  0.00
Comm    | 0.5755     | 0.84526    | 1.3125     |  31.1 | 14.39
Output  | 0.022822   | 0.023093   | 0.024339   |   0.4 |  0.39
Modify  | 0.0084169  | 0.0096478  | 0.01153    |   1.2 |  0.16
Other   |            | 0.1388     |            |       |  2.36

Nlocal:    8960 ave 8960 max 8960 min
Histogram: 6 0 0 0 0 0 0 0 0 0
Nghost:    11722.3 ave 13895 max 10552 min
Histogram: 4 0 0 0 0 0 0 0 0 2
Neighs:    980971 ave 1.01168e+06 max 942368 min
Histogram: 2 0 0 0 0 0 2 0 0 2
FullNghs:  0 ave 0 max 0 min
Histogram: 6 0 0 0 0 0 0 0 0 0

Total # of neighbors = 5885824
Ave neighs/atom = 109.483
Neighbor list builds = 0
Dangerous builds = 0
variable Ef equal "c_eatoms"
variable Cf equal 1.60217657e-16
variable A equal (cella*cellb)*1e-20
variable SFE equal ((${Ef}-${Eo})*${Cf})/${A}
variable SFE equal ((-238085.987571437-${Eo})*${Cf})/${A}
variable SFE equal ((-238085.987571437--238159.276198223)*${Cf})/${A}
variable SFE equal ((-238085.987571437--238159.276198223)*1.60217657e-16)/${A}
variable SFE equal ((-238085.987571437--238159.276198223)*1.60217657e-16)/4.80619470511564e-17

#variable Ef equal "c_eatoms" computes the final energy of the system after sliding is done
#variable A is the area of the Stacking fault plane
#variable Cf is the conversion factor of electro volts to millijoules
#variable SFE is the stacking-fault energy of the system
####################################
# SIMULATION DONE
print "All done"
All done
print "Initial energy of atoms = ${Eo} eV"
Initial energy of atoms = -238159.276198223 eV
print "Final energy of atoms = ${Ef} eV"
Final energy of atoms = -238085.987571437 eV
print "Stacking-fault energy = ${SFE} mJ/m^2"
Stacking-fault energy = 244.312450677506 mJ/m^2
Total wall time: 0:00:06
