LAMMPS (17 Nov 2015)
WARNING: OMP_NUM_THREADS environment is not set. (../comm.cpp:90)
  using 1 OpenMP thread(s) per MPI task
# Input file for Stack Fault Energy surface of Nickel: originally Richard Glaze, 2014
# Modified Dec 2019 for generalised stacking faults

# --------------------- INITIALIZAITION ---------------------
read_restart ../../init/restart.opt
  orthogonal box = (-0.305467 -0.308632 -0.539994) to (69.2831 70.0011 122.476)
  1 by 2 by 3 MPI processor grid
  53760 atoms

change_box all boundary p p s
variable sca equal 16
variable scb equal 28
variable scc equal 10
variable latparam1 equal 3.52
variable x_displace equal -1.9496796087847266
variable xdim equal ${latparam1}*sqrt(6)/2*${sca}
variable xdim equal 3.52*sqrt(6)/2*${sca}
variable xdim equal 3.52*sqrt(6)/2*16
variable ydim equal ${latparam1}*sqrt(2)/2*${scb}
variable ydim equal 3.52*sqrt(2)/2*${scb}
variable ydim equal 3.52*sqrt(2)/2*28
variable zmid equal ${latparam1}*sqrt(3)*${scc}
variable zmid equal 3.52*sqrt(3)*${scc}
variable zmid equal 3.52*sqrt(3)*10
variable ztop equal ${zmid}*2
variable ztop equal 60.9681884264245*2
# --------------------- ATOM DEFINITION ---------------------
# Not needed because restarted
# --------------------- FORCE FIELDS ---------------------
pair_style eam/alloy
pair_coeff * * ../../../NiAlCoCrMoTiWTa.set Al Co Ni
#pair_coeff * * Ni99.eam.alloy Ni Ni
# Also not needed because restarted
# --------------------- SETTINGS ---------------------
compute peratom all pe/atom
compute eatoms all reduce sum c_peratom
compute csym all centro/atom fcc
thermo 1
thermo_style custom step pe c_eatoms
#dump 1 all custom 1 dump.relax.1.* id type xs ys zs c_peratom c_csym
run 0
WARNING: No fixes defined, atoms won't move (../verlet.cpp:55)
Neighbor list info ...
  2 neighbor list requests
  update every 1 steps, delay 10 steps, check yes
  max neighbors/atom: 2000, page size: 100000
  master list distance cutoff = 8.56034
  ghost atom cutoff = 8.56034
  binsize = 4.28017 -> bins = 17 17 29
Memory usage per processor = 5.18855 Mbytes
Step PotEng eatoms 
      38   -234482.26   -234482.26 
Loop time of 3.25839e-06 on 6 procs for 0 steps with 53760 atoms

158.6% CPU use with 6 MPI tasks x 1 OpenMP threads

MPI task timing breakdown:
Section |  min time  |  avg time  |  max time  |%varavg| %total
---------------------------------------------------------------
Pair    | 0          | 0          | 0          |   0.0 |  0.00
Neigh   | 0          | 0          | 0          |   0.0 |  0.00
Comm    | 0          | 0          | 0          |   0.0 |  0.00
Output  | 0          | 0          | 0          |   0.0 |  0.00
Modify  | 0          | 0          | 0          |   0.0 |  0.00
Other   |            | 3.258e-06  |            |       |100.00

Nlocal:    8960 ave 9125 max 8849 min
Histogram: 2 1 0 0 1 0 1 0 0 1
Nghost:    12178 ave 14551 max 10965 min
Histogram: 4 0 0 0 0 0 0 0 0 2
Neighs:    976936 ave 1.02163e+06 max 917197 min
Histogram: 1 1 0 0 0 0 1 1 0 2
FullNghs:  0 ave 0 max 0 min
Histogram: 6 0 0 0 0 0 0 0 0 0

Total # of neighbors = 5861616
Ave neighs/atom = 109.033
Neighbor list builds = 0
Dangerous builds = 0
#this command creates a model of the script before the displacement and minimization occur
variable E equal "c_eatoms"
variable Eo equal $E
variable Eo equal -234482.259789123
#variable E equal "c_eatoms" computes the initial energy of the model before any sliding is done
#E is necessary to store the initial energy in Eo
#group bot region 1
#group top region 2
# Groups are preserved after restart
displace_atoms top move ${x_displace} 0.0 0.0 units box
displace_atoms top move -1.94967960878473 0.0 0.0 units box

#displace_atoms is the command neccessary to move atoms into the next stacking arrangement (ie: A -> B)

fix 1 all setforce 0 0 NULL
min_style cg
minimize 1e-10 1e-10 1000 1000
WARNING: Resetting reneighboring criteria during minimization (../min.cpp:168)
Neighbor list info ...
  2 neighbor list requests
  update every 1 steps, delay 0 steps, check yes
  max neighbors/atom: 2000, page size: 100000
  master list distance cutoff = 8.56034
  ghost atom cutoff = 8.56034
  binsize = 4.28017 -> bins = 17 17 29
Memory usage per processor = 7.68855 Mbytes
Step PotEng eatoms 
      38   -234107.47   -234107.47 
      39   -234200.31   -234200.31 
      40   -234227.56   -234227.56 
      41   -234239.86   -234239.86 
      42   -234248.05   -234248.05 
      43   -234253.73   -234253.73 
      44   -234255.83   -234255.83 
      45   -234257.78   -234257.78 
      46    -234258.4    -234258.4 
      47   -234259.24   -234259.24 
      48   -234259.76   -234259.76 
      49   -234259.96   -234259.96 
      50   -234260.31   -234260.31 
      51   -234260.62   -234260.62 
      52   -234260.77   -234260.77 
      53   -234260.91   -234260.91 
      54   -234261.02   -234261.02 
      55   -234261.15   -234261.15 
      56   -234261.26   -234261.26 
      57   -234261.32   -234261.32 
      58   -234261.39   -234261.39 
      59   -234261.44   -234261.44 
      60   -234261.49   -234261.49 
      61   -234261.54   -234261.54 
      62   -234261.59   -234261.59 
      63   -234261.64   -234261.64 
      64   -234261.68   -234261.68 
      65   -234261.72   -234261.72 
      66   -234261.76   -234261.76 
      67    -234261.8    -234261.8 
      68   -234261.83   -234261.83 
      69   -234261.85   -234261.85 
      70   -234261.88   -234261.88 
      71    -234261.9    -234261.9 
      72   -234261.93   -234261.93 
      73   -234261.95   -234261.95 
      74   -234261.97   -234261.97 
      75   -234261.99   -234261.99 
      76   -234262.01   -234262.01 
      77   -234262.04   -234262.04 
      78   -234262.07   -234262.07 
      79    -234262.1    -234262.1 
      80   -234262.13   -234262.13 
      81   -234262.17   -234262.17 
      82   -234262.21   -234262.21 
      83   -234262.25   -234262.25 
      84   -234262.28   -234262.28 
      85   -234262.31   -234262.31 
      86   -234262.35   -234262.35 
      87   -234262.37   -234262.37 
      88   -234262.39   -234262.39 
      89   -234262.41   -234262.41 
      90   -234262.43   -234262.43 
      91   -234262.45   -234262.45 
      92   -234262.46   -234262.46 
      93   -234262.47   -234262.47 
      94   -234262.48   -234262.48 
      95   -234262.49   -234262.49 
      96    -234262.5    -234262.5 
      97   -234262.51   -234262.51 
      98   -234262.51   -234262.51 
      99   -234262.52   -234262.52 
     100   -234262.52   -234262.52 
     101   -234262.53   -234262.53 
     102   -234262.54   -234262.54 
     103   -234262.54   -234262.54 
     104   -234262.54   -234262.54 
     105   -234262.55   -234262.55 
     106   -234262.55   -234262.55 
     107   -234262.55   -234262.55 
     108   -234262.56   -234262.56 
     109   -234262.56   -234262.56 
     110   -234262.56   -234262.56 
     111   -234262.56   -234262.56 
     112   -234262.57   -234262.57 
     113   -234262.57   -234262.57 
     114   -234262.57   -234262.57 
     115   -234262.57   -234262.57 
     116   -234262.57   -234262.57 
     117   -234262.57   -234262.57 
     118   -234262.58   -234262.58 
     119   -234262.58   -234262.58 
     120   -234262.58   -234262.58 
     121   -234262.58   -234262.58 
     122   -234262.58   -234262.58 
     123   -234262.58   -234262.58 
     124   -234262.58   -234262.58 
     125   -234262.58   -234262.58 
     126   -234262.58   -234262.58 
     127   -234262.58   -234262.58 
     128   -234262.58   -234262.58 
     129   -234262.58   -234262.58 
     130   -234262.58   -234262.58 
     131   -234262.58   -234262.58 
     132   -234262.58   -234262.58 
     133   -234262.58   -234262.58 
     134   -234262.58   -234262.58 
     135   -234262.58   -234262.58 
     136   -234262.58   -234262.58 
     137   -234262.58   -234262.58 
     138   -234262.58   -234262.58 
     139   -234262.58   -234262.58 
     140   -234262.58   -234262.58 
     141   -234262.58   -234262.58 
     142   -234262.58   -234262.58 
     143   -234262.58   -234262.58 
     144   -234262.58   -234262.58 
     145   -234262.58   -234262.58 
     146   -234262.58   -234262.58 
     147   -234262.58   -234262.58 
     148   -234262.58   -234262.58 
     149   -234262.58   -234262.58 
     150   -234262.58   -234262.58 
     151   -234262.58   -234262.58 
     152   -234262.58   -234262.58 
     153   -234262.58   -234262.58 
     154   -234262.58   -234262.58 
     155   -234262.58   -234262.58 
     156   -234262.58   -234262.58 
     157   -234262.58   -234262.58 
     158   -234262.58   -234262.58 
     159   -234262.58   -234262.58 
Loop time of 13.6269 on 6 procs for 121 steps with 53760 atoms

99.9% CPU use with 6 MPI tasks x 1 OpenMP threads

Minimization stats:
  Stopping criterion = energy tolerance
  Energy initial, next-to-last, final = 
        -234107.473921     -234262.581879     -234262.581901
  Force two-norm initial, final = 68.8029 0.0198415
  Force max component initial, final = 3.028 0.00738231
  Final line search alpha, max atom move = 1 0.00738231
  Iterations, force evaluations = 121 235

MPI task timing breakdown:
Section |  min time  |  avg time  |  max time  |%varavg| %total
---------------------------------------------------------------
Pair    | 10.604     | 11.288     | 12.885     |  23.2 | 82.84
Neigh   | 0          | 0          | 0          |   0.0 |  0.00
Comm    | 0.40749    | 2.0181     | 2.7005     |  55.2 | 14.81
Output  | 0.04529    | 0.045827   | 0.048222   |   0.5 |  0.34
Modify  | 0.01599    | 0.01799    | 0.020859   |   1.4 |  0.13
Other   |            | 0.2568     |            |       |  1.88

Nlocal:    8960 ave 9125 max 8849 min
Histogram: 2 1 0 0 1 0 1 0 0 1
Nghost:    12262 ave 14635 max 11009 min
Histogram: 4 0 0 0 0 0 0 0 0 2
Neighs:    978746 ave 1.02674e+06 max 917455 min
Histogram: 1 1 0 0 0 0 2 0 0 2
FullNghs:  0 ave 0 max 0 min
Histogram: 6 0 0 0 0 0 0 0 0 0

Total # of neighbors = 5872479
Ave neighs/atom = 109.235
Neighbor list builds = 0
Dangerous builds = 0
variable Ef equal "c_eatoms"
variable Cf equal 1.60217657e-16
variable A equal (cella*cellb)*1e-20
variable SFE equal ((${Ef}-${Eo})*${Cf})/${A}
variable SFE equal ((-234262.581901326-${Eo})*${Cf})/${A}
variable SFE equal ((-234262.581901326--234482.259789123)*${Cf})/${A}
variable SFE equal ((-234262.581901326--234482.259789123)*1.60217657e-16)/${A}
variable SFE equal ((-234262.581901326--234482.259789123)*1.60217657e-16)/4.89275170426208e-17

#variable Ef equal "c_eatoms" computes the final energy of the system after sliding is done
#variable A is the area of the Stacking fault plane
#variable Cf is the conversion factor of electro volts to millijoules
#variable SFE is the stacking-fault energy of the system
####################################
# SIMULATION DONE
print "All done"
All done
print "Initial energy of atoms = ${Eo} eV"
Initial energy of atoms = -234482.259789123 eV
print "Final energy of atoms = ${Ef} eV"
Final energy of atoms = -234262.581901326 eV
print "Stacking-fault energy = ${SFE} mJ/m^2"
Stacking-fault energy = 719.355458951366 mJ/m^2
Total wall time: 0:00:13
