LAMMPS (17 Nov 2015)
WARNING: OMP_NUM_THREADS environment is not set. (../comm.cpp:90)
  using 1 OpenMP thread(s) per MPI task
# Input file for Stack Fault Energy surface of Nickel: originally Richard Glaze, 2014
# Modified Dec 2019 for generalised stacking faults

# --------------------- INITIALIZAITION ---------------------
read_restart ../../init/restart.opt
  orthogonal box = (-0.305467 -0.308632 -0.539994) to (69.2831 70.0011 122.476)
  1 by 2 by 3 MPI processor grid
  53760 atoms

change_box all boundary p p s
variable sca equal 16
variable scb equal 28
variable scc equal 10
variable latparam1 equal 3.52
variable x_displace equal -1.4247658679580695
variable xdim equal ${latparam1}*sqrt(6)/2*${sca}
variable xdim equal 3.52*sqrt(6)/2*${sca}
variable xdim equal 3.52*sqrt(6)/2*16
variable ydim equal ${latparam1}*sqrt(2)/2*${scb}
variable ydim equal 3.52*sqrt(2)/2*${scb}
variable ydim equal 3.52*sqrt(2)/2*28
variable zmid equal ${latparam1}*sqrt(3)*${scc}
variable zmid equal 3.52*sqrt(3)*${scc}
variable zmid equal 3.52*sqrt(3)*10
variable ztop equal ${zmid}*2
variable ztop equal 60.9681884264245*2
# --------------------- ATOM DEFINITION ---------------------
# Not needed because restarted
# --------------------- FORCE FIELDS ---------------------
pair_style eam/alloy
pair_coeff * * ../../../NiAlCoCrMoTiWTa.set Al Co Ni
#pair_coeff * * Ni99.eam.alloy Ni Ni
# Also not needed because restarted
# --------------------- SETTINGS ---------------------
compute peratom all pe/atom
compute eatoms all reduce sum c_peratom
compute csym all centro/atom fcc
thermo 1
thermo_style custom step pe c_eatoms
#dump 1 all custom 1 dump.relax.1.* id type xs ys zs c_peratom c_csym
run 0
WARNING: No fixes defined, atoms won't move (../verlet.cpp:55)
Neighbor list info ...
  2 neighbor list requests
  update every 1 steps, delay 10 steps, check yes
  max neighbors/atom: 2000, page size: 100000
  master list distance cutoff = 8.56034
  ghost atom cutoff = 8.56034
  binsize = 4.28017 -> bins = 17 17 29
Memory usage per processor = 5.18855 Mbytes
Step PotEng eatoms 
      38   -234482.26   -234482.26 
Loop time of 3.53654e-06 on 6 procs for 0 steps with 53760 atoms

146.1% CPU use with 6 MPI tasks x 1 OpenMP threads

MPI task timing breakdown:
Section |  min time  |  avg time  |  max time  |%varavg| %total
---------------------------------------------------------------
Pair    | 0          | 0          | 0          |   0.0 |  0.00
Neigh   | 0          | 0          | 0          |   0.0 |  0.00
Comm    | 0          | 0          | 0          |   0.0 |  0.00
Output  | 0          | 0          | 0          |   0.0 |  0.00
Modify  | 0          | 0          | 0          |   0.0 |  0.00
Other   |            | 3.537e-06  |            |       |100.00

Nlocal:    8960 ave 9125 max 8849 min
Histogram: 2 1 0 0 1 0 1 0 0 1
Nghost:    12178 ave 14551 max 10965 min
Histogram: 4 0 0 0 0 0 0 0 0 2
Neighs:    976936 ave 1.02163e+06 max 917197 min
Histogram: 1 1 0 0 0 0 1 1 0 2
FullNghs:  0 ave 0 max 0 min
Histogram: 6 0 0 0 0 0 0 0 0 0

Total # of neighbors = 5861616
Ave neighs/atom = 109.033
Neighbor list builds = 0
Dangerous builds = 0
#this command creates a model of the script before the displacement and minimization occur
variable E equal "c_eatoms"
variable Eo equal $E
variable Eo equal -234482.259789123
#variable E equal "c_eatoms" computes the initial energy of the model before any sliding is done
#E is necessary to store the initial energy in Eo
#group bot region 1
#group top region 2
# Groups are preserved after restart
displace_atoms top move ${x_displace} 0.0 0.0 units box
displace_atoms top move -1.42476586795807 0.0 0.0 units box

#displace_atoms is the command neccessary to move atoms into the next stacking arrangement (ie: A -> B)

fix 1 all setforce 0 0 NULL
min_style cg
minimize 1e-10 1e-10 1000 1000
WARNING: Resetting reneighboring criteria during minimization (../min.cpp:168)
Neighbor list info ...
  2 neighbor list requests
  update every 1 steps, delay 0 steps, check yes
  max neighbors/atom: 2000, page size: 100000
  master list distance cutoff = 8.56034
  ghost atom cutoff = 8.56034
  binsize = 4.28017 -> bins = 17 17 29
Memory usage per processor = 7.68855 Mbytes
Step PotEng eatoms 
      38   -234125.45   -234125.45 
      39   -234250.13   -234250.13 
      40   -234284.81   -234284.81 
      41   -234298.49   -234298.49 
      42   -234306.25   -234306.25 
      43    -234311.4    -234311.4 
      44   -234314.93   -234314.93 
      45   -234316.38   -234316.38 
      46   -234317.38   -234317.38 
      47   -234318.14   -234318.14 
      48   -234318.56   -234318.56 
      49    -234318.7    -234318.7 
      50   -234318.91   -234318.91 
      51   -234319.09   -234319.09 
      52   -234319.17   -234319.17 
      53   -234319.26   -234319.26 
      54   -234319.35   -234319.35 
      55   -234319.42   -234319.42 
      56   -234319.47   -234319.47 
      57   -234319.51   -234319.51 
      58   -234319.53   -234319.53 
      59   -234319.54   -234319.54 
      60   -234319.56   -234319.56 
      61   -234319.57   -234319.57 
      62   -234319.58   -234319.58 
      63   -234319.59   -234319.59 
      64    -234319.6    -234319.6 
      65   -234319.61   -234319.61 
      66   -234319.61   -234319.61 
      67   -234319.62   -234319.62 
      68   -234319.62   -234319.62 
      69   -234319.63   -234319.63 
      70   -234319.63   -234319.63 
      71   -234319.64   -234319.64 
      72   -234319.64   -234319.64 
      73   -234319.64   -234319.64 
      74   -234319.65   -234319.65 
      75   -234319.65   -234319.65 
      76   -234319.65   -234319.65 
      77   -234319.65   -234319.65 
      78   -234319.66   -234319.66 
      79   -234319.66   -234319.66 
      80   -234319.66   -234319.66 
      81   -234319.66   -234319.66 
      82   -234319.67   -234319.67 
      83   -234319.67   -234319.67 
      84   -234319.67   -234319.67 
      85   -234319.67   -234319.67 
      86   -234319.67   -234319.67 
      87   -234319.67   -234319.67 
      88   -234319.67   -234319.67 
      89   -234319.67   -234319.67 
      90   -234319.67   -234319.67 
      91   -234319.67   -234319.67 
      92   -234319.67   -234319.67 
      93   -234319.68   -234319.68 
      94   -234319.68   -234319.68 
      95   -234319.68   -234319.68 
      96   -234319.68   -234319.68 
      97   -234319.68   -234319.68 
      98   -234319.68   -234319.68 
      99   -234319.68   -234319.68 
     100   -234319.68   -234319.68 
     101   -234319.68   -234319.68 
     102   -234319.68   -234319.68 
     103   -234319.68   -234319.68 
     104   -234319.68   -234319.68 
     105   -234319.68   -234319.68 
     106   -234319.68   -234319.68 
     107   -234319.68   -234319.68 
     108   -234319.68   -234319.68 
     109   -234319.68   -234319.68 
     110   -234319.68   -234319.68 
     111   -234319.68   -234319.68 
     112   -234319.68   -234319.68 
     113   -234319.68   -234319.68 
     114   -234319.68   -234319.68 
     115   -234319.68   -234319.68 
     116   -234319.69   -234319.69 
     117   -234319.69   -234319.69 
     118   -234319.69   -234319.69 
     119   -234319.69   -234319.69 
     120   -234319.69   -234319.69 
     121   -234319.69   -234319.69 
     122   -234319.69   -234319.69 
     123   -234319.69   -234319.69 
     124   -234319.69   -234319.69 
     125   -234319.69   -234319.69 
     126   -234319.69   -234319.69 
     127   -234319.69   -234319.69 
     128   -234319.69   -234319.69 
     129   -234319.69   -234319.69 
     130   -234319.69   -234319.69 
     131   -234319.69   -234319.69 
     132   -234319.69   -234319.69 
     133   -234319.69   -234319.69 
     134   -234319.69   -234319.69 
     135   -234319.69   -234319.69 
     136   -234319.69   -234319.69 
     137   -234319.69   -234319.69 
     138   -234319.69   -234319.69 
     139   -234319.69   -234319.69 
Loop time of 11.142 on 6 procs for 101 steps with 53760 atoms

100.0% CPU use with 6 MPI tasks x 1 OpenMP threads

Minimization stats:
  Stopping criterion = energy tolerance
  Energy initial, next-to-last, final = 
        -234125.450526     -234319.687625     -234319.687646
  Force two-norm initial, final = 94.743 0.0178722
  Force max component initial, final = 4.50144 0.0035088
  Final line search alpha, max atom move = 1 0.0035088
  Iterations, force evaluations = 101 192

MPI task timing breakdown:
Section |  min time  |  avg time  |  max time  |%varavg| %total
---------------------------------------------------------------
Pair    | 8.1415     | 9.2281     | 10.737     |  33.1 | 82.82
Neigh   | 0          | 0          | 0          |   0.0 |  0.00
Comm    | 0.126      | 1.6507     | 2.7518     |  79.0 | 14.82
Output  | 0.037661   | 0.038127   | 0.040151   |   0.5 |  0.34
Modify  | 0.012724   | 0.01505    | 0.017287   |   1.3 |  0.14
Other   |            | 0.21       |            |       |  1.88

Nlocal:    8960 ave 9125 max 8849 min
Histogram: 2 1 0 0 1 0 1 0 0 1
Nghost:    12171 ave 14530 max 10965 min
Histogram: 4 0 0 0 0 0 0 0 0 2
Neighs:    978518 ave 1.02667e+06 max 916948 min
Histogram: 1 1 0 0 0 0 2 0 0 2
FullNghs:  0 ave 0 max 0 min
Histogram: 6 0 0 0 0 0 0 0 0 0

Total # of neighbors = 5871108
Ave neighs/atom = 109.21
Neighbor list builds = 0
Dangerous builds = 0
variable Ef equal "c_eatoms"
variable Cf equal 1.60217657e-16
variable A equal (cella*cellb)*1e-20
variable SFE equal ((${Ef}-${Eo})*${Cf})/${A}
variable SFE equal ((-234319.687646143-${Eo})*${Cf})/${A}
variable SFE equal ((-234319.687646143--234482.259789123)*${Cf})/${A}
variable SFE equal ((-234319.687646143--234482.259789123)*1.60217657e-16)/${A}
variable SFE equal ((-234319.687646143--234482.259789123)*1.60217657e-16)/4.89275170426208e-17

#variable Ef equal "c_eatoms" computes the final energy of the system after sliding is done
#variable A is the area of the Stacking fault plane
#variable Cf is the conversion factor of electro volts to millijoules
#variable SFE is the stacking-fault energy of the system
####################################
# SIMULATION DONE
print "All done"
All done
print "Initial energy of atoms = ${Eo} eV"
Initial energy of atoms = -234482.259789123 eV
print "Final energy of atoms = ${Ef} eV"
Final energy of atoms = -234319.687646143 eV
print "Stacking-fault energy = ${SFE} mJ/m^2"
Stacking-fault energy = 532.357442521263 mJ/m^2
Total wall time: 0:00:11
