LAMMPS (17 Nov 2015)
WARNING: OMP_NUM_THREADS environment is not set. (../comm.cpp:90)
  using 1 OpenMP thread(s) per MPI task
# Input file for Stack Fault Energy surface of Nickel: originally Richard Glaze, 2014
# Modified Dec 2019 for generalised stacking faults

# --------------------- INITIALIZAITION ---------------------
read_restart ../../init/restart.opt
  orthogonal box = (-0.305467 -0.308632 -0.539994) to (69.2831 70.0011 122.476)
  1 by 2 by 3 MPI processor grid
  53760 atoms

change_box all boundary p p s
variable sca equal 16
variable scb equal 28
variable scc equal 10
variable latparam1 equal 3.52
variable x_displace equal -2.17464264056758
variable xdim equal ${latparam1}*sqrt(6)/2*${sca}
variable xdim equal 3.52*sqrt(6)/2*${sca}
variable xdim equal 3.52*sqrt(6)/2*16
variable ydim equal ${latparam1}*sqrt(2)/2*${scb}
variable ydim equal 3.52*sqrt(2)/2*${scb}
variable ydim equal 3.52*sqrt(2)/2*28
variable zmid equal ${latparam1}*sqrt(3)*${scc}
variable zmid equal 3.52*sqrt(3)*${scc}
variable zmid equal 3.52*sqrt(3)*10
variable ztop equal ${zmid}*2
variable ztop equal 60.9681884264245*2
# --------------------- ATOM DEFINITION ---------------------
# Not needed because restarted
# --------------------- FORCE FIELDS ---------------------
pair_style eam/alloy
pair_coeff * * ../../../NiAlCoCrMoTiWTa.set Al Co Ni
#pair_coeff * * Ni99.eam.alloy Ni Ni
# Also not needed because restarted
# --------------------- SETTINGS ---------------------
compute peratom all pe/atom
compute eatoms all reduce sum c_peratom
compute csym all centro/atom fcc
thermo 1
thermo_style custom step pe c_eatoms
#dump 1 all custom 1 dump.relax.1.* id type xs ys zs c_peratom c_csym
run 0
WARNING: No fixes defined, atoms won't move (../verlet.cpp:55)
Neighbor list info ...
  2 neighbor list requests
  update every 1 steps, delay 10 steps, check yes
  max neighbors/atom: 2000, page size: 100000
  master list distance cutoff = 8.56034
  ghost atom cutoff = 8.56034
  binsize = 4.28017 -> bins = 17 17 29
Memory usage per processor = 5.18855 Mbytes
Step PotEng eatoms 
      38   -234482.26   -234482.26 
Loop time of 4.21206e-06 on 6 procs for 0 steps with 53760 atoms

138.5% CPU use with 6 MPI tasks x 1 OpenMP threads

MPI task timing breakdown:
Section |  min time  |  avg time  |  max time  |%varavg| %total
---------------------------------------------------------------
Pair    | 0          | 0          | 0          |   0.0 |  0.00
Neigh   | 0          | 0          | 0          |   0.0 |  0.00
Comm    | 0          | 0          | 0          |   0.0 |  0.00
Output  | 0          | 0          | 0          |   0.0 |  0.00
Modify  | 0          | 0          | 0          |   0.0 |  0.00
Other   |            | 4.212e-06  |            |       |100.00

Nlocal:    8960 ave 9125 max 8849 min
Histogram: 2 1 0 0 1 0 1 0 0 1
Nghost:    12178 ave 14551 max 10965 min
Histogram: 4 0 0 0 0 0 0 0 0 2
Neighs:    976936 ave 1.02163e+06 max 917197 min
Histogram: 1 1 0 0 0 0 1 1 0 2
FullNghs:  0 ave 0 max 0 min
Histogram: 6 0 0 0 0 0 0 0 0 0

Total # of neighbors = 5861616
Ave neighs/atom = 109.033
Neighbor list builds = 0
Dangerous builds = 0
#this command creates a model of the script before the displacement and minimization occur
variable E equal "c_eatoms"
variable Eo equal $E
variable Eo equal -234482.259789123
#variable E equal "c_eatoms" computes the initial energy of the model before any sliding is done
#E is necessary to store the initial energy in Eo
#group bot region 1
#group top region 2
# Groups are preserved after restart
displace_atoms top move ${x_displace} 0.0 0.0 units box
displace_atoms top move -2.17464264056758 0.0 0.0 units box

#displace_atoms is the command neccessary to move atoms into the next stacking arrangement (ie: A -> B)

fix 1 all setforce 0 0 NULL
min_style cg
minimize 1e-10 1e-10 1000 1000
WARNING: Resetting reneighboring criteria during minimization (../min.cpp:168)
Neighbor list info ...
  2 neighbor list requests
  update every 1 steps, delay 0 steps, check yes
  max neighbors/atom: 2000, page size: 100000
  master list distance cutoff = 8.56034
  ghost atom cutoff = 8.56034
  binsize = 4.28017 -> bins = 17 17 29
Memory usage per processor = 7.68855 Mbytes
Step PotEng eatoms 
      38   -234056.17   -234056.17 
      39    -234150.4    -234150.4 
      40   -234183.76   -234183.76 
      41   -234199.44   -234199.44 
      42    -234209.6    -234209.6 
      43   -234215.32   -234215.32 
      44   -234218.72   -234218.72 
      45   -234220.96   -234220.96 
      46   -234221.89   -234221.89 
      47   -234222.85   -234222.85 
      48   -234223.55   -234223.55 
      49   -234224.32   -234224.32 
      50    -234224.7    -234224.7 
      51   -234225.06   -234225.06 
      52   -234225.37   -234225.37 
      53   -234225.57   -234225.57 
      54   -234225.84   -234225.84 
      55   -234226.12   -234226.12 
      56   -234226.36   -234226.36 
      57   -234226.55   -234226.55 
      58   -234226.71   -234226.71 
      59   -234226.88   -234226.88 
      60   -234227.03   -234227.03 
      61   -234227.15   -234227.15 
      62   -234227.25   -234227.25 
      63   -234227.34   -234227.34 
      64   -234227.42   -234227.42 
      65   -234227.49   -234227.49 
      66   -234227.57   -234227.57 
      67   -234227.66   -234227.66 
      68   -234227.73   -234227.73 
      69    -234227.8    -234227.8 
      70   -234227.86   -234227.86 
      71   -234227.91   -234227.91 
      72   -234227.97   -234227.97 
      73   -234228.03   -234228.03 
      74   -234228.12   -234228.12 
      75   -234228.23   -234228.23 
      76   -234228.34   -234228.34 
      77   -234228.47   -234228.47 
      78   -234228.63   -234228.63 
      79   -234228.77   -234228.77 
      80   -234228.91   -234228.91 
      81   -234229.02   -234229.02 
      82   -234229.11   -234229.11 
      83   -234229.18   -234229.18 
      84   -234229.22   -234229.22 
      85   -234229.26   -234229.26 
      86   -234229.29   -234229.29 
      87   -234229.31   -234229.31 
      88   -234229.33   -234229.33 
      89   -234229.35   -234229.35 
      90   -234229.36   -234229.36 
      91   -234229.38   -234229.38 
      92   -234229.39   -234229.39 
      93    -234229.4    -234229.4 
      94   -234229.41   -234229.41 
      95   -234229.42   -234229.42 
      96   -234229.43   -234229.43 
      97   -234229.44   -234229.44 
      98   -234229.44   -234229.44 
      99   -234229.45   -234229.45 
     100   -234229.45   -234229.45 
     101   -234229.46   -234229.46 
     102   -234229.46   -234229.46 
     103   -234229.46   -234229.46 
     104   -234229.47   -234229.47 
     105   -234229.47   -234229.47 
     106   -234229.47   -234229.47 
     107   -234229.47   -234229.47 
     108   -234229.48   -234229.48 
     109   -234229.48   -234229.48 
     110   -234229.48   -234229.48 
     111   -234229.48   -234229.48 
     112   -234229.48   -234229.48 
     113   -234229.48   -234229.48 
     114   -234229.48   -234229.48 
     115   -234229.49   -234229.49 
     116   -234229.49   -234229.49 
     117   -234229.49   -234229.49 
     118   -234229.49   -234229.49 
     119   -234229.49   -234229.49 
     120   -234229.49   -234229.49 
     121   -234229.49   -234229.49 
     122   -234229.49   -234229.49 
     123   -234229.49   -234229.49 
     124   -234229.49   -234229.49 
     125   -234229.49   -234229.49 
     126   -234229.49   -234229.49 
     127   -234229.49   -234229.49 
     128   -234229.49   -234229.49 
     129   -234229.49   -234229.49 
     130   -234229.49   -234229.49 
     131   -234229.49   -234229.49 
     132   -234229.49   -234229.49 
     133   -234229.49   -234229.49 
     134   -234229.49   -234229.49 
     135   -234229.49   -234229.49 
     136   -234229.49   -234229.49 
     137   -234229.49   -234229.49 
     138   -234229.49   -234229.49 
     139   -234229.49   -234229.49 
     140   -234229.49   -234229.49 
     141   -234229.49   -234229.49 
     142   -234229.49   -234229.49 
     143   -234229.49   -234229.49 
     144   -234229.49   -234229.49 
     145   -234229.49   -234229.49 
     146   -234229.49   -234229.49 
     147   -234229.49   -234229.49 
     148   -234229.49   -234229.49 
     149   -234229.49   -234229.49 
     150   -234229.49   -234229.49 
     151   -234229.49   -234229.49 
     152   -234229.49   -234229.49 
     153   -234229.49   -234229.49 
     154   -234229.49   -234229.49 
     155   -234229.49   -234229.49 
     156   -234229.49   -234229.49 
     157   -234229.49   -234229.49 
     158   -234229.49   -234229.49 
Loop time of 14.0625 on 6 procs for 120 steps with 53760 atoms

100.0% CPU use with 6 MPI tasks x 1 OpenMP threads

Minimization stats:
  Stopping criterion = energy tolerance
  Energy initial, next-to-last, final = 
        -234056.165652     -234229.491446     -234229.491469
  Force two-norm initial, final = 67.4476 0.0173935
  Force max component initial, final = 3.08253 0.00632632
  Final line search alpha, max atom move = 1 0.00632632
  Iterations, force evaluations = 120 231

MPI task timing breakdown:
Section |  min time  |  avg time  |  max time  |%varavg| %total
---------------------------------------------------------------
Pair    | 9.8903     | 11.197     | 13.574     |  44.7 | 79.62
Neigh   | 0          | 0          | 0          |   0.0 |  0.00
Comm    | 0.15721    | 2.5523     | 3.8655     |  94.2 | 18.15
Output  | 0.045051   | 0.045575   | 0.048037   |   0.5 |  0.32
Modify  | 0.015358   | 0.017608   | 0.019625   |   1.0 |  0.13
Other   |            | 0.25       |            |       |  1.78

Nlocal:    8960 ave 9125 max 8849 min
Histogram: 2 1 0 0 1 0 1 0 0 1
Nghost:    12182 ave 14555 max 10973 min
Histogram: 4 0 0 0 0 0 0 0 0 2
Neighs:    978939 ave 1.02685e+06 max 917860 min
Histogram: 1 1 0 0 0 0 2 0 0 2
FullNghs:  0 ave 0 max 0 min
Histogram: 6 0 0 0 0 0 0 0 0 0

Total # of neighbors = 5873633
Ave neighs/atom = 109.257
Neighbor list builds = 0
Dangerous builds = 0
variable Ef equal "c_eatoms"
variable Cf equal 1.60217657e-16
variable A equal (cella*cellb)*1e-20
variable SFE equal ((${Ef}-${Eo})*${Cf})/${A}
variable SFE equal ((-234229.49146893-${Eo})*${Cf})/${A}
variable SFE equal ((-234229.49146893--234482.259789123)*${Cf})/${A}
variable SFE equal ((-234229.49146893--234482.259789123)*1.60217657e-16)/${A}
variable SFE equal ((-234229.49146893--234482.259789123)*1.60217657e-16)/4.89275170426208e-17

#variable Ef equal "c_eatoms" computes the final energy of the system after sliding is done
#variable A is the area of the Stacking fault plane
#variable Cf is the conversion factor of electro volts to millijoules
#variable SFE is the stacking-fault energy of the system
####################################
# SIMULATION DONE
print "All done"
All done
print "Initial energy of atoms = ${Eo} eV"
Initial energy of atoms = -234482.259789123 eV
print "Final energy of atoms = ${Ef} eV"
Final energy of atoms = -234229.49146893 eV
print "Stacking-fault energy = ${SFE} mJ/m^2"
Stacking-fault energy = 827.713124904109 mJ/m^2
Total wall time: 0:00:14
