LAMMPS (17 Nov 2015)
WARNING: OMP_NUM_THREADS environment is not set. (../comm.cpp:90)
  using 1 OpenMP thread(s) per MPI task
# Input file for Stack Fault Energy surface of Nickel: originally Richard Glaze, 2014
# Modified Dec 2019 for generalised stacking faults

# --------------------- INITIALIZAITION ---------------------
clear
WARNING: OMP_NUM_THREADS environment is not set. (../comm.cpp:90)
  using 1 OpenMP thread(s) per MPI task
units metal
dimension 3
boundary p p p
atom_style atomic
variable sca equal 16
variable scb equal 28
variable scc equal 10
variable latparam1 equal 3.52
variable x_displace equal -1*(${latparam1}/sqrt(6))
variable x_displace equal -1*(3.52/sqrt(6))
variable xdim equal ${latparam1}*sqrt(6)/2*${sca}
variable xdim equal 3.52*sqrt(6)/2*${sca}
variable xdim equal 3.52*sqrt(6)/2*16
variable ydim equal ${latparam1}*sqrt(2)/2*${scb}
variable ydim equal 3.52*sqrt(2)/2*${scb}
variable ydim equal 3.52*sqrt(2)/2*28
variable zmid equal ${latparam1}*sqrt(3)*${scc}
variable zmid equal 3.52*sqrt(3)*${scc}
variable zmid equal 3.52*sqrt(3)*10
variable ztop equal ${zmid}*2
variable ztop equal 60.9681884264245*2
# --------------------- ATOM DEFINITION ---------------------
lattice fcc ${latparam1}
lattice fcc 3.52
Lattice spacing in x,y,z = 3.52 3.52 3.52
region 1 block -.001 ${xdim} -.001 ${ydim} -.001 ${zmid} units box
region 1 block -.001 68.9776311567743 -.001 ${ydim} -.001 ${zmid} units box
region 1 block -.001 68.9776311567743 -.001 69.6924443537461 -.001 ${zmid} units box
region 1 block -.001 68.9776311567743 -.001 69.6924443537461 -.001 60.9681884264245 units box
region 2 block -.001 ${xdim} -.001 ${ydim} ${zmid} ${ztop} units box
region 2 block -.001 68.9776311567743 -.001 ${ydim} ${zmid} ${ztop} units box
region 2 block -.001 68.9776311567743 -.001 69.6924443537461 ${zmid} ${ztop} units box
region 2 block -.001 68.9776311567743 -.001 69.6924443537461 60.9681884264245 ${ztop} units box
region 2 block -.001 68.9776311567743 -.001 69.6924443537461 60.9681884264245 121.936376852849 units box
region whole block 0 ${xdim} 0 ${ydim} 0 ${ztop} units box
region whole block 0 68.9776311567743 0 ${ydim} 0 ${ztop} units box
region whole block 0 68.9776311567743 0 69.6924443537461 0 ${ztop} units box
region whole block 0 68.9776311567743 0 69.6924443537461 0 121.936376852849 units box
#the -.001 in the -x and -y and lower limit of region 1 are only to overcome a simple numerical issue but can be considered 0
create_box 2 whole
Created orthogonal box = (0 0 0) to (68.9776 69.6924 121.936)
  1 by 2 by 3 MPI processor grid
lattice fcc ${latparam1} orient x 1 1 2 orient y -1 1 0 orient z -1 -1 1
lattice fcc 3.52 orient x 1 1 2 orient y -1 1 0 orient z -1 -1 1
Lattice spacing in x,y,z = 5.74814 4.97803 6.09682
create_atoms 1 region 1
Created 27776 atoms
lattice fcc ${latparam1} orient x 1 1 2 orient y -1 1 0 orient z -1 -1 1
lattice fcc 3.52 orient x 1 1 2 orient y -1 1 0 orient z -1 -1 1
Lattice spacing in x,y,z = 5.74814 4.97803 6.09682
create_atoms 2 region 2
Created 25984 atoms
# --------------------- FORCE FIELDS ---------------------
pair_style eam/alloy
pair_coeff * * ../NiAlCoCrMoTiWTa.set Ni Ni
#pair_coeff * * Ni99.eam.alloy Ni Ni
# --------------------- SETTINGS ---------------------
write_data elemental.data
Neighbor list info ...
  1 neighbor list requests
  update every 1 steps, delay 10 steps, check yes
  max neighbors/atom: 2000, page size: 100000
  master list distance cutoff = 8.56034
  ghost atom cutoff = 8.56034
  binsize = 4.28017 -> bins = 17 17 29
Total wall time: 0:00:00
