LAMMPS (17 Nov 2015)
WARNING: OMP_NUM_THREADS environment is not set. (../comm.cpp:90)
  using 1 OpenMP thread(s) per MPI task
# Input file for Stack Fault Energy surface of Nickel: originally Richard Glaze, 2014
# Modified Dec 2019 for generalised stacking faults

# --------------------- INITIALIZAITION ---------------------
read_restart ../../init/restart.opt
  orthogonal box = (0.00367712 0.00371523 0.0065003) to (68.974 69.6887 121.93)
  1 by 2 by 3 MPI processor grid
  53760 atoms

change_box all boundary p p s
variable sca equal 16
variable scb equal 28
variable scc equal 10
variable latparam1 equal 3.52
variable x_displace equal -1.1148212862946008
variable xdim equal ${latparam1}*sqrt(6)/2*${sca}
variable xdim equal 3.52*sqrt(6)/2*${sca}
variable xdim equal 3.52*sqrt(6)/2*16
variable ydim equal ${latparam1}*sqrt(2)/2*${scb}
variable ydim equal 3.52*sqrt(2)/2*${scb}
variable ydim equal 3.52*sqrt(2)/2*28
variable zmid equal ${latparam1}*sqrt(3)*${scc}
variable zmid equal 3.52*sqrt(3)*${scc}
variable zmid equal 3.52*sqrt(3)*10
variable ztop equal ${zmid}*2
variable ztop equal 60.9681884264245*2
# --------------------- ATOM DEFINITION ---------------------
# Not needed because restarted
# --------------------- FORCE FIELDS ---------------------
pair_style eam/alloy
pair_coeff * * ../../../NiAlCoCrMoTiWTa.set Ni Ni
#pair_coeff * * Ni99.eam.alloy Ni Ni
# Also not needed because restarted
# --------------------- SETTINGS ---------------------
compute peratom all pe/atom
compute eatoms all reduce sum c_peratom
compute csym all centro/atom fcc
thermo 1
thermo_style custom step pe c_eatoms
#dump 1 all custom 1 dump.relax.1.* id type xs ys zs c_peratom c_csym
run 0
WARNING: No fixes defined, atoms won't move (../verlet.cpp:55)
Neighbor list info ...
  2 neighbor list requests
  update every 1 steps, delay 10 steps, check yes
  max neighbors/atom: 2000, page size: 100000
  master list distance cutoff = 8.56034
  ghost atom cutoff = 8.56034
  binsize = 4.28017 -> bins = 17 17 29
Memory usage per processor = 5.21199 Mbytes
Step PotEng eatoms 
       2   -238159.28   -238159.28 
Loop time of 3.89417e-06 on 6 procs for 0 steps with 53760 atoms

137.0% CPU use with 6 MPI tasks x 1 OpenMP threads

MPI task timing breakdown:
Section |  min time  |  avg time  |  max time  |%varavg| %total
---------------------------------------------------------------
Pair    | 0          | 0          | 0          |   0.0 |  0.00
Neigh   | 0          | 0          | 0          |   0.0 |  0.00
Comm    | 0          | 0          | 0          |   0.0 |  0.00
Output  | 0          | 0          | 0          |   0.0 |  0.00
Modify  | 0          | 0          | 0          |   0.0 |  0.00
Other   |            | 3.894e-06  |            |       |100.00

Nlocal:    8960 ave 8960 max 8960 min
Histogram: 6 0 0 0 0 0 0 0 0 0
Nghost:    11638.3 ave 13811 max 10552 min
Histogram: 4 0 0 0 0 0 0 0 0 2
Neighs:    977984 ave 1.00355e+06 max 941536 min
Histogram: 2 0 0 0 0 0 0 2 0 2
FullNghs:  0 ave 0 max 0 min
Histogram: 6 0 0 0 0 0 0 0 0 0

Total # of neighbors = 5867904
Ave neighs/atom = 109.15
Neighbor list builds = 0
Dangerous builds = 0
#this command creates a model of the script before the displacement and minimization occur
variable E equal "c_eatoms"
variable Eo equal $E
variable Eo equal -238159.276198223
#variable E equal "c_eatoms" computes the initial energy of the model before any sliding is done
#E is necessary to store the initial energy in Eo
#group bot region 1
#group top region 2
# Groups are preserved after restart
displace_atoms top move ${x_displace} 0.0 0.0 units box
displace_atoms top move -1.1148212862946 0.0 0.0 units box

#displace_atoms is the command neccessary to move atoms into the next stacking arrangement (ie: A -> B)

fix 1 all setforce 0 0 NULL
min_style cg
minimize 1e-10 1e-10 1000 1000
WARNING: Resetting reneighboring criteria during minimization (../min.cpp:168)
Neighbor list info ...
  2 neighbor list requests
  update every 1 steps, delay 0 steps, check yes
  max neighbors/atom: 2000, page size: 100000
  master list distance cutoff = 8.56034
  ghost atom cutoff = 8.56034
  binsize = 4.28017 -> bins = 17 17 29
Memory usage per processor = 7.71199 Mbytes
Step PotEng eatoms 
       2   -238098.73   -238098.73 
       3   -238100.67   -238100.67 
       4   -238101.29   -238101.29 
       5    -238101.7    -238101.7 
       6    -238101.9    -238101.9 
       7   -238102.13   -238102.13 
       8   -238102.26   -238102.26 
       9   -238102.33   -238102.33 
      10   -238102.41   -238102.41 
      11   -238102.47   -238102.47 
      12   -238102.51   -238102.51 
      13   -238102.55   -238102.55 
      14   -238102.58   -238102.58 
      15   -238102.61   -238102.61 
      16   -238102.63   -238102.63 
      17   -238102.65   -238102.65 
      18   -238102.66   -238102.66 
      19   -238102.68   -238102.68 
      20    -238102.7    -238102.7 
      21   -238102.71   -238102.71 
      22   -238102.72   -238102.72 
      23   -238102.73   -238102.73 
      24   -238102.74   -238102.74 
      25   -238102.75   -238102.75 
      26   -238102.76   -238102.76 
      27   -238102.77   -238102.77 
      28   -238102.77   -238102.77 
      29   -238102.78   -238102.78 
      30   -238102.79   -238102.79 
      31   -238102.79   -238102.79 
      32   -238102.81   -238102.81 
      33   -238102.83   -238102.83 
      34   -238102.87   -238102.87 
      35   -238102.89   -238102.89 
      36   -238102.91   -238102.91 
      37   -238102.92   -238102.92 
      38   -238102.93   -238102.93 
      39   -238102.94   -238102.94 
      40   -238102.94   -238102.94 
      41   -238102.94   -238102.94 
      42   -238102.94   -238102.94 
      43   -238102.95   -238102.95 
      44   -238102.95   -238102.95 
      45   -238102.95   -238102.95 
      46   -238102.95   -238102.95 
      47   -238102.95   -238102.95 
      48   -238102.95   -238102.95 
      49   -238102.95   -238102.95 
      50   -238102.95   -238102.95 
      51   -238102.95   -238102.95 
      52   -238102.95   -238102.95 
      53   -238102.95   -238102.95 
      54   -238102.95   -238102.95 
      55   -238102.95   -238102.95 
      56   -238102.95   -238102.95 
      57   -238102.95   -238102.95 
      58   -238102.95   -238102.95 
      59   -238102.95   -238102.95 
      60   -238102.95   -238102.95 
      61   -238102.95   -238102.95 
      62   -238102.95   -238102.95 
      63   -238102.95   -238102.95 
Loop time of 6.12373 on 6 procs for 61 steps with 53760 atoms

99.9% CPU use with 6 MPI tasks x 1 OpenMP threads

Minimization stats:
  Stopping criterion = energy tolerance
  Energy initial, next-to-last, final = 
        -238098.727791     -238102.951596     -238102.951609
  Force two-norm initial, final = 7.60935 0.00862438
  Force max component initial, final = 0.165282 0.000129175
  Final line search alpha, max atom move = 1 0.000129175
  Iterations, force evaluations = 61 122

MPI task timing breakdown:
Section |  min time  |  avg time  |  max time  |%varavg| %total
---------------------------------------------------------------
Pair    | 4.4685     | 4.9539     | 5.858      |  26.4 | 80.90
Neigh   | 0          | 0          | 0          |   0.0 |  0.00
Comm    | 0.086265   | 0.99917    | 1.4926     |  59.4 | 16.32
Output  | 0.022941   | 0.023195   | 0.024378   |   0.3 |  0.38
Modify  | 0.0086684  | 0.0097403  | 0.011494   |   1.2 |  0.16
Other   |            | 0.1378     |            |       |  2.25

Nlocal:    8960 ave 8960 max 8960 min
Histogram: 6 0 0 0 0 0 0 0 0 0
Nghost:    11722.3 ave 13895 max 10552 min
Histogram: 4 0 0 0 0 0 0 0 0 2
Neighs:    981568 ave 1.01347e+06 max 942368 min
Histogram: 2 0 0 0 0 0 2 0 0 2
FullNghs:  0 ave 0 max 0 min
Histogram: 6 0 0 0 0 0 0 0 0 0

Total # of neighbors = 5889408
Ave neighs/atom = 109.55
Neighbor list builds = 0
Dangerous builds = 0
variable Ef equal "c_eatoms"
variable Cf equal 1.60217657e-16
variable A equal (cella*cellb)*1e-20
variable SFE equal ((${Ef}-${Eo})*${Cf})/${A}
variable SFE equal ((-238102.951608516-${Eo})*${Cf})/${A}
variable SFE equal ((-238102.951608516--238159.276198223)*${Cf})/${A}
variable SFE equal ((-238102.951608516--238159.276198223)*1.60217657e-16)/${A}
variable SFE equal ((-238102.951608516--238159.276198223)*1.60217657e-16)/4.80619470511564e-17

#variable Ef equal "c_eatoms" computes the final energy of the system after sliding is done
#variable A is the area of the Stacking fault plane
#variable Cf is the conversion factor of electro volts to millijoules
#variable SFE is the stacking-fault energy of the system
####################################
# SIMULATION DONE
print "All done"
All done
print "Initial energy of atoms = ${Eo} eV"
Initial energy of atoms = -238159.276198223 eV
print "Final energy of atoms = ${Ef} eV"
Final energy of atoms = -238102.951608516 eV
print "Stacking-fault energy = ${SFE} mJ/m^2"
Stacking-fault energy = 187.761718948558 mJ/m^2
Total wall time: 0:00:06
