LAMMPS (17 Nov 2015)
WARNING: OMP_NUM_THREADS environment is not set. (../comm.cpp:90)
  using 1 OpenMP thread(s) per MPI task
# Input file for Stack Fault Energy surface of Nickel: originally Richard Glaze, 2014
# Modified Dec 2019 for generalised stacking faults

# --------------------- INITIALIZAITION ---------------------
read_restart ../../init/restart.opt
  orthogonal box = (0.00367712 0.00371523 0.0065003) to (68.974 69.6887 121.93)
  1 by 2 by 3 MPI processor grid
  53760 atoms

change_box all boundary p p s
variable sca equal 16
variable scb equal 28
variable scc equal 10
variable latparam1 equal 3.52
variable x_displace equal -0.07432141908630673
variable xdim equal ${latparam1}*sqrt(6)/2*${sca}
variable xdim equal 3.52*sqrt(6)/2*${sca}
variable xdim equal 3.52*sqrt(6)/2*16
variable ydim equal ${latparam1}*sqrt(2)/2*${scb}
variable ydim equal 3.52*sqrt(2)/2*${scb}
variable ydim equal 3.52*sqrt(2)/2*28
variable zmid equal ${latparam1}*sqrt(3)*${scc}
variable zmid equal 3.52*sqrt(3)*${scc}
variable zmid equal 3.52*sqrt(3)*10
variable ztop equal ${zmid}*2
variable ztop equal 60.9681884264245*2
# --------------------- ATOM DEFINITION ---------------------
# Not needed because restarted
# --------------------- FORCE FIELDS ---------------------
pair_style eam/alloy
pair_coeff * * ../../../NiAlCoCrMoTiWTa.set Ni Ni
#pair_coeff * * Ni99.eam.alloy Ni Ni
# Also not needed because restarted
# --------------------- SETTINGS ---------------------
compute peratom all pe/atom
compute eatoms all reduce sum c_peratom
compute csym all centro/atom fcc
thermo 1
thermo_style custom step pe c_eatoms
#dump 1 all custom 1 dump.relax.1.* id type xs ys zs c_peratom c_csym
run 0
WARNING: No fixes defined, atoms won't move (../verlet.cpp:55)
Neighbor list info ...
  2 neighbor list requests
  update every 1 steps, delay 10 steps, check yes
  max neighbors/atom: 2000, page size: 100000
  master list distance cutoff = 8.56034
  ghost atom cutoff = 8.56034
  binsize = 4.28017 -> bins = 17 17 29
Memory usage per processor = 5.21199 Mbytes
Step PotEng eatoms 
       2   -238159.28   -238159.28 
Loop time of 4.60943e-06 on 6 procs for 0 steps with 53760 atoms

151.9% CPU use with 6 MPI tasks x 1 OpenMP threads

MPI task timing breakdown:
Section |  min time  |  avg time  |  max time  |%varavg| %total
---------------------------------------------------------------
Pair    | 0          | 0          | 0          |   0.0 |  0.00
Neigh   | 0          | 0          | 0          |   0.0 |  0.00
Comm    | 0          | 0          | 0          |   0.0 |  0.00
Output  | 0          | 0          | 0          |   0.0 |  0.00
Modify  | 0          | 0          | 0          |   0.0 |  0.00
Other   |            | 4.609e-06  |            |       |100.00

Nlocal:    8960 ave 8960 max 8960 min
Histogram: 6 0 0 0 0 0 0 0 0 0
Nghost:    11638.3 ave 13811 max 10552 min
Histogram: 4 0 0 0 0 0 0 0 0 2
Neighs:    977984 ave 1.00355e+06 max 941536 min
Histogram: 2 0 0 0 0 0 0 2 0 2
FullNghs:  0 ave 0 max 0 min
Histogram: 6 0 0 0 0 0 0 0 0 0

Total # of neighbors = 5867904
Ave neighs/atom = 109.15
Neighbor list builds = 0
Dangerous builds = 0
#this command creates a model of the script before the displacement and minimization occur
variable E equal "c_eatoms"
variable Eo equal $E
variable Eo equal -238159.276198223
#variable E equal "c_eatoms" computes the initial energy of the model before any sliding is done
#E is necessary to store the initial energy in Eo
#group bot region 1
#group top region 2
# Groups are preserved after restart
displace_atoms top move ${x_displace} 0.0 0.0 units box
displace_atoms top move -0.0743214190863067 0.0 0.0 units box

#displace_atoms is the command neccessary to move atoms into the next stacking arrangement (ie: A -> B)

fix 1 all setforce 0 0 NULL
min_style cg
minimize 1e-10 1e-10 1000 1000
WARNING: Resetting reneighboring criteria during minimization (../min.cpp:168)
Neighbor list info ...
  2 neighbor list requests
  update every 1 steps, delay 0 steps, check yes
  max neighbors/atom: 2000, page size: 100000
  master list distance cutoff = 8.56034
  ghost atom cutoff = 8.56034
  binsize = 4.28017 -> bins = 17 17 29
Memory usage per processor = 7.71199 Mbytes
Step PotEng eatoms 
       2   -238156.56   -238156.56 
       3   -238156.78   -238156.78 
       4    -238156.8    -238156.8 
       5   -238156.81   -238156.81 
       6   -238156.81   -238156.81 
       7   -238156.81   -238156.81 
       8   -238156.81   -238156.81 
       9   -238156.81   -238156.81 
      10   -238156.81   -238156.81 
      11   -238156.81   -238156.81 
      12   -238156.81   -238156.81 
      13   -238156.81   -238156.81 
      14   -238156.81   -238156.81 
      15   -238156.81   -238156.81 
      16   -238156.81   -238156.81 
      17   -238156.81   -238156.81 
Loop time of 1.32344 on 6 procs for 15 steps with 53760 atoms

100.0% CPU use with 6 MPI tasks x 1 OpenMP threads

Minimization stats:
  Stopping criterion = energy tolerance
  Energy initial, next-to-last, final = 
        -238156.560482      -238156.81283     -238156.812845
  Force two-norm initial, final = 2.68619 0.0100794
  Force max component initial, final = 0.0482015 0.000131698
  Final line search alpha, max atom move = 1 0.000131698
  Iterations, force evaluations = 15 30

MPI task timing breakdown:
Section |  min time  |  avg time  |  max time  |%varavg| %total
---------------------------------------------------------------
Pair    | 0.96556    | 1.0828     | 1.2609     |  11.5 | 81.81
Neigh   | 0          | 0          | 0          |   0.0 |  0.00
Comm    | 0.020347   | 0.20051    | 0.31883    |  27.0 | 15.15
Output  | 0.0051141  | 0.0051773  | 0.0054746  |   0.2 |  0.39
Modify  | 0.0020044  | 0.0024061  | 0.0028892  |   0.6 |  0.18
Other   |            | 0.03259    |            |       |  2.46

Nlocal:    8960 ave 8960 max 8960 min
Histogram: 6 0 0 0 0 0 0 0 0 0
Nghost:    11722.3 ave 13895 max 10552 min
Histogram: 4 0 0 0 0 0 0 0 0 2
Neighs:    977984 ave 1.00432e+06 max 940768 min
Histogram: 2 0 0 0 0 0 0 2 0 2
FullNghs:  0 ave 0 max 0 min
Histogram: 6 0 0 0 0 0 0 0 0 0

Total # of neighbors = 5867904
Ave neighs/atom = 109.15
Neighbor list builds = 0
Dangerous builds = 0
variable Ef equal "c_eatoms"
variable Cf equal 1.60217657e-16
variable A equal (cella*cellb)*1e-20
variable SFE equal ((${Ef}-${Eo})*${Cf})/${A}
variable SFE equal ((-238156.812845235-${Eo})*${Cf})/${A}
variable SFE equal ((-238156.812845235--238159.276198223)*${Cf})/${A}
variable SFE equal ((-238156.812845235--238159.276198223)*1.60217657e-16)/${A}
variable SFE equal ((-238156.812845235--238159.276198223)*1.60217657e-16)/4.80619470511564e-17

#variable Ef equal "c_eatoms" computes the final energy of the system after sliding is done
#variable A is the area of the Stacking fault plane
#variable Cf is the conversion factor of electro volts to millijoules
#variable SFE is the stacking-fault energy of the system
####################################
# SIMULATION DONE
print "All done"
All done
print "Initial energy of atoms = ${Eo} eV"
Initial energy of atoms = -238159.276198223 eV
print "Final energy of atoms = ${Ef} eV"
Final energy of atoms = -238156.812845235 eV
print "Stacking-fault energy = ${SFE} mJ/m^2"
Stacking-fault energy = 8.21174896810928 mJ/m^2
Total wall time: 0:00:01
