LAMMPS (17 Nov 2015)
WARNING: OMP_NUM_THREADS environment is not set. (../comm.cpp:90)
  using 1 OpenMP thread(s) per MPI task
# Input file for Stack Fault Energy surface of Nickel: originally Richard Glaze, 2014
# Modified Dec 2019 for generalised stacking faults

# --------------------- INITIALIZAITION ---------------------
read_restart ../../init/restart.opt
  orthogonal box = (0.00367712 0.00371523 0.0065003) to (68.974 69.6887 121.93)
  1 by 2 by 3 MPI processor grid
  53760 atoms

change_box all boundary p p s
variable sca equal 16
variable scb equal 28
variable scc equal 10
variable latparam1 equal 3.52
variable x_displace equal -0.2972856763452269
variable xdim equal ${latparam1}*sqrt(6)/2*${sca}
variable xdim equal 3.52*sqrt(6)/2*${sca}
variable xdim equal 3.52*sqrt(6)/2*16
variable ydim equal ${latparam1}*sqrt(2)/2*${scb}
variable ydim equal 3.52*sqrt(2)/2*${scb}
variable ydim equal 3.52*sqrt(2)/2*28
variable zmid equal ${latparam1}*sqrt(3)*${scc}
variable zmid equal 3.52*sqrt(3)*${scc}
variable zmid equal 3.52*sqrt(3)*10
variable ztop equal ${zmid}*2
variable ztop equal 60.9681884264245*2
# --------------------- ATOM DEFINITION ---------------------
# Not needed because restarted
# --------------------- FORCE FIELDS ---------------------
pair_style eam/alloy
pair_coeff * * ../../../NiAlCoCrMoTiWTa.set Ni Ni
#pair_coeff * * Ni99.eam.alloy Ni Ni
# Also not needed because restarted
# --------------------- SETTINGS ---------------------
compute peratom all pe/atom
compute eatoms all reduce sum c_peratom
compute csym all centro/atom fcc
thermo 1
thermo_style custom step pe c_eatoms
#dump 1 all custom 1 dump.relax.1.* id type xs ys zs c_peratom c_csym
run 0
WARNING: No fixes defined, atoms won't move (../verlet.cpp:55)
Neighbor list info ...
  2 neighbor list requests
  update every 1 steps, delay 10 steps, check yes
  max neighbors/atom: 2000, page size: 100000
  master list distance cutoff = 8.56034
  ghost atom cutoff = 8.56034
  binsize = 4.28017 -> bins = 17 17 29
Memory usage per processor = 5.21199 Mbytes
Step PotEng eatoms 
       2   -238159.28   -238159.28 
Loop time of 3.41733e-06 on 6 procs for 0 steps with 53760 atoms

151.2% CPU use with 6 MPI tasks x 1 OpenMP threads

MPI task timing breakdown:
Section |  min time  |  avg time  |  max time  |%varavg| %total
---------------------------------------------------------------
Pair    | 0          | 0          | 0          |   0.0 |  0.00
Neigh   | 0          | 0          | 0          |   0.0 |  0.00
Comm    | 0          | 0          | 0          |   0.0 |  0.00
Output  | 0          | 0          | 0          |   0.0 |  0.00
Modify  | 0          | 0          | 0          |   0.0 |  0.00
Other   |            | 3.417e-06  |            |       |100.00

Nlocal:    8960 ave 8960 max 8960 min
Histogram: 6 0 0 0 0 0 0 0 0 0
Nghost:    11638.3 ave 13811 max 10552 min
Histogram: 4 0 0 0 0 0 0 0 0 2
Neighs:    977984 ave 1.00355e+06 max 941536 min
Histogram: 2 0 0 0 0 0 0 2 0 2
FullNghs:  0 ave 0 max 0 min
Histogram: 6 0 0 0 0 0 0 0 0 0

Total # of neighbors = 5867904
Ave neighs/atom = 109.15
Neighbor list builds = 0
Dangerous builds = 0
#this command creates a model of the script before the displacement and minimization occur
variable E equal "c_eatoms"
variable Eo equal $E
variable Eo equal -238159.276198223
#variable E equal "c_eatoms" computes the initial energy of the model before any sliding is done
#E is necessary to store the initial energy in Eo
#group bot region 1
#group top region 2
# Groups are preserved after restart
displace_atoms top move ${x_displace} 0.0 0.0 units box
displace_atoms top move -0.297285676345227 0.0 0.0 units box

#displace_atoms is the command neccessary to move atoms into the next stacking arrangement (ie: A -> B)

fix 1 all setforce 0 0 NULL
min_style cg
minimize 1e-10 1e-10 1000 1000
WARNING: Resetting reneighboring criteria during minimization (../min.cpp:168)
Neighbor list info ...
  2 neighbor list requests
  update every 1 steps, delay 0 steps, check yes
  max neighbors/atom: 2000, page size: 100000
  master list distance cutoff = 8.56034
  ghost atom cutoff = 8.56034
  binsize = 4.28017 -> bins = 17 17 29
Memory usage per processor = 7.71199 Mbytes
Step PotEng eatoms 
       2   -238126.77   -238126.77 
       3   -238127.66   -238127.66 
       4    -238127.8    -238127.8 
       5   -238127.88   -238127.88 
       6   -238127.91   -238127.91 
       7   -238127.94   -238127.94 
       8   -238127.96   -238127.96 
       9   -238127.97   -238127.97 
      10   -238127.98   -238127.98 
      11   -238127.98   -238127.98 
      12   -238127.99   -238127.99 
      13   -238127.99   -238127.99 
      14      -238128      -238128 
      15      -238128      -238128 
      16      -238128      -238128 
      17   -238128.01   -238128.01 
      18   -238128.01   -238128.01 
      19   -238128.01   -238128.01 
      20   -238128.01   -238128.01 
      21   -238128.01   -238128.01 
      22   -238128.01   -238128.01 
      23   -238128.02   -238128.02 
      24   -238128.02   -238128.02 
      25   -238128.02   -238128.02 
      26   -238128.02   -238128.02 
      27   -238128.02   -238128.02 
      28   -238128.02   -238128.02 
      29   -238128.02   -238128.02 
      30   -238128.02   -238128.02 
      31   -238128.02   -238128.02 
      32   -238128.02   -238128.02 
      33   -238128.03   -238128.03 
      34   -238128.03   -238128.03 
      35   -238128.03   -238128.03 
      36   -238128.03   -238128.03 
      37   -238128.04   -238128.04 
      38   -238128.04   -238128.04 
      39   -238128.04   -238128.04 
      40   -238128.04   -238128.04 
      41   -238128.04   -238128.04 
      42   -238128.04   -238128.04 
      43   -238128.04   -238128.04 
      44   -238128.04   -238128.04 
      45   -238128.04   -238128.04 
      46   -238128.04   -238128.04 
      47   -238128.04   -238128.04 
      48   -238128.04   -238128.04 
      49   -238128.04   -238128.04 
      50   -238128.04   -238128.04 
      51   -238128.04   -238128.04 
      52   -238128.04   -238128.04 
      53   -238128.04   -238128.04 
Loop time of 4.36943 on 6 procs for 51 steps with 53760 atoms

100.0% CPU use with 6 MPI tasks x 1 OpenMP threads

Minimization stats:
  Stopping criterion = energy tolerance
  Energy initial, next-to-last, final = 
        -238126.765105     -238128.040976     -238128.040997
  Force two-norm initial, final = 5.55925 0.0153788
  Force max component initial, final = 0.115314 0.000176951
  Final line search alpha, max atom move = 1 0.000176951
  Iterations, force evaluations = 51 102

MPI task timing breakdown:
Section |  min time  |  avg time  |  max time  |%varavg| %total
---------------------------------------------------------------
Pair    | 3.2175     | 3.5862     | 4.1427     |  19.5 | 82.08
Neigh   | 0          | 0          | 0          |   0.0 |  0.00
Comm    | 0.07728    | 0.64217    | 1.0185     |  46.5 | 14.70
Output  | 0.018466   | 0.018697   | 0.01979    |   0.4 |  0.43
Modify  | 0.006741   | 0.0079787  | 0.0096118  |   1.2 |  0.18
Other   |            | 0.1143     |            |       |  2.62

Nlocal:    8960 ave 8960 max 8960 min
Histogram: 6 0 0 0 0 0 0 0 0 0
Nghost:    11722.3 ave 13895 max 10552 min
Histogram: 4 0 0 0 0 0 0 0 0 2
Neighs:    979179 ave 1.0079e+06 max 940768 min
Histogram: 2 0 0 0 0 0 0 2 0 2
FullNghs:  0 ave 0 max 0 min
Histogram: 6 0 0 0 0 0 0 0 0 0

Total # of neighbors = 5875072
Ave neighs/atom = 109.283
Neighbor list builds = 0
Dangerous builds = 0
variable Ef equal "c_eatoms"
variable Cf equal 1.60217657e-16
variable A equal (cella*cellb)*1e-20
variable SFE equal ((${Ef}-${Eo})*${Cf})/${A}
variable SFE equal ((-238128.040996609-${Eo})*${Cf})/${A}
variable SFE equal ((-238128.040996609--238159.276198223)*${Cf})/${A}
variable SFE equal ((-238128.040996609--238159.276198223)*1.60217657e-16)/${A}
variable SFE equal ((-238128.040996609--238159.276198223)*1.60217657e-16)/4.80619470511564e-17

#variable Ef equal "c_eatoms" computes the final energy of the system after sliding is done
#variable A is the area of the Stacking fault plane
#variable Cf is the conversion factor of electro volts to millijoules
#variable SFE is the stacking-fault energy of the system
####################################
# SIMULATION DONE
print "All done"
All done
print "Initial energy of atoms = ${Eo} eV"
Initial energy of atoms = -238159.276198223 eV
print "Final energy of atoms = ${Ef} eV"
Final energy of atoms = -238128.040996609 eV
print "Stacking-fault energy = ${SFE} mJ/m^2"
Stacking-fault energy = 104.124595975942 mJ/m^2
Total wall time: 0:00:04
