LAMMPS (17 Nov 2015)
WARNING: OMP_NUM_THREADS environment is not set. (../comm.cpp:90)
  using 1 OpenMP thread(s) per MPI task
# Input file for Stack Fault Energy surface of Nickel: originally Richard Glaze, 2014
# Modified Dec 2019 for generalised stacking faults

# --------------------- INITIALIZAITION ---------------------
read_restart ../../init/restart.opt
  orthogonal box = (0.00367712 0.00371523 0.0065003) to (68.974 69.6887 121.93)
  1 by 2 by 3 MPI processor grid
  53760 atoms

change_box all boundary p p s
variable sca equal 16
variable scb equal 28
variable scc equal 10
variable latparam1 equal 3.52
variable x_displace equal -1.7837140580713604
variable xdim equal ${latparam1}*sqrt(6)/2*${sca}
variable xdim equal 3.52*sqrt(6)/2*${sca}
variable xdim equal 3.52*sqrt(6)/2*16
variable ydim equal ${latparam1}*sqrt(2)/2*${scb}
variable ydim equal 3.52*sqrt(2)/2*${scb}
variable ydim equal 3.52*sqrt(2)/2*28
variable zmid equal ${latparam1}*sqrt(3)*${scc}
variable zmid equal 3.52*sqrt(3)*${scc}
variable zmid equal 3.52*sqrt(3)*10
variable ztop equal ${zmid}*2
variable ztop equal 60.9681884264245*2
# --------------------- ATOM DEFINITION ---------------------
# Not needed because restarted
# --------------------- FORCE FIELDS ---------------------
pair_style eam/alloy
pair_coeff * * ../../../NiAlCoCrMoTiWTa.set Ni Ni
#pair_coeff * * Ni99.eam.alloy Ni Ni
# Also not needed because restarted
# --------------------- SETTINGS ---------------------
compute peratom all pe/atom
compute eatoms all reduce sum c_peratom
compute csym all centro/atom fcc
thermo 1
thermo_style custom step pe c_eatoms
#dump 1 all custom 1 dump.relax.1.* id type xs ys zs c_peratom c_csym
run 0
WARNING: No fixes defined, atoms won't move (../verlet.cpp:55)
Neighbor list info ...
  2 neighbor list requests
  update every 1 steps, delay 10 steps, check yes
  max neighbors/atom: 2000, page size: 100000
  master list distance cutoff = 8.56034
  ghost atom cutoff = 8.56034
  binsize = 4.28017 -> bins = 17 17 29
Memory usage per processor = 5.21199 Mbytes
Step PotEng eatoms 
       2   -238159.28   -238159.28 
Loop time of 3.89417e-06 on 6 procs for 0 steps with 53760 atoms

145.5% CPU use with 6 MPI tasks x 1 OpenMP threads

MPI task timing breakdown:
Section |  min time  |  avg time  |  max time  |%varavg| %total
---------------------------------------------------------------
Pair    | 0          | 0          | 0          |   0.0 |  0.00
Neigh   | 0          | 0          | 0          |   0.0 |  0.00
Comm    | 0          | 0          | 0          |   0.0 |  0.00
Output  | 0          | 0          | 0          |   0.0 |  0.00
Modify  | 0          | 0          | 0          |   0.0 |  0.00
Other   |            | 3.894e-06  |            |       |100.00

Nlocal:    8960 ave 8960 max 8960 min
Histogram: 6 0 0 0 0 0 0 0 0 0
Nghost:    11638.3 ave 13811 max 10552 min
Histogram: 4 0 0 0 0 0 0 0 0 2
Neighs:    977984 ave 1.00355e+06 max 941536 min
Histogram: 2 0 0 0 0 0 0 2 0 2
FullNghs:  0 ave 0 max 0 min
Histogram: 6 0 0 0 0 0 0 0 0 0

Total # of neighbors = 5867904
Ave neighs/atom = 109.15
Neighbor list builds = 0
Dangerous builds = 0
#this command creates a model of the script before the displacement and minimization occur
variable E equal "c_eatoms"
variable Eo equal $E
variable Eo equal -238159.276198223
#variable E equal "c_eatoms" computes the initial energy of the model before any sliding is done
#E is necessary to store the initial energy in Eo
#group bot region 1
#group top region 2
# Groups are preserved after restart
displace_atoms top move ${x_displace} 0.0 0.0 units box
displace_atoms top move -1.78371405807136 0.0 0.0 units box

#displace_atoms is the command neccessary to move atoms into the next stacking arrangement (ie: A -> B)

fix 1 all setforce 0 0 NULL
min_style cg
minimize 1e-10 1e-10 1000 1000
WARNING: Resetting reneighboring criteria during minimization (../min.cpp:168)
Neighbor list info ...
  2 neighbor list requests
  update every 1 steps, delay 0 steps, check yes
  max neighbors/atom: 2000, page size: 100000
  master list distance cutoff = 8.56034
  ghost atom cutoff = 8.56034
  binsize = 4.28017 -> bins = 17 17 29
Memory usage per processor = 7.71199 Mbytes
Step PotEng eatoms 
       2   -238064.68   -238064.68 
       3   -238070.07   -238070.07 
       4   -238071.64   -238071.64 
       5   -238072.54   -238072.54 
       6   -238073.03   -238073.03 
       7   -238073.55   -238073.55 
       8    -238073.8    -238073.8 
       9   -238073.98   -238073.98 
      10   -238074.16   -238074.16 
      11   -238074.28   -238074.28 
      12   -238074.37   -238074.37 
      13   -238074.47   -238074.47 
      14   -238074.53   -238074.53 
      15   -238074.59   -238074.59 
      16   -238074.64   -238074.64 
      17   -238074.68   -238074.68 
      18   -238074.72   -238074.72 
      19   -238074.76   -238074.76 
      20   -238074.79   -238074.79 
      21   -238074.82   -238074.82 
      22   -238074.84   -238074.84 
      23   -238074.87   -238074.87 
      24   -238074.89   -238074.89 
      25   -238074.91   -238074.91 
      26   -238074.93   -238074.93 
      27   -238074.94   -238074.94 
      28   -238074.96   -238074.96 
      29   -238074.97   -238074.97 
      30   -238074.98   -238074.98 
      31      -238075      -238075 
      32   -238075.03   -238075.03 
      33   -238075.06   -238075.06 
      34   -238075.15   -238075.15 
      35   -238075.19   -238075.19 
      36   -238075.24   -238075.24 
      37   -238075.27   -238075.27 
      38   -238075.29   -238075.29 
      39   -238075.31   -238075.31 
      40   -238075.32   -238075.32 
      41   -238075.32   -238075.32 
      42   -238075.33   -238075.33 
      43   -238075.33   -238075.33 
      44   -238075.33   -238075.33 
      45   -238075.34   -238075.34 
      46   -238075.34   -238075.34 
      47   -238075.34   -238075.34 
      48   -238075.34   -238075.34 
      49   -238075.34   -238075.34 
      50   -238075.34   -238075.34 
      51   -238075.34   -238075.34 
      52   -238075.34   -238075.34 
      53   -238075.34   -238075.34 
      54   -238075.34   -238075.34 
      55   -238075.34   -238075.34 
      56   -238075.34   -238075.34 
      57   -238075.34   -238075.34 
      58   -238075.34   -238075.34 
      59   -238075.34   -238075.34 
      60   -238075.34   -238075.34 
      61   -238075.34   -238075.34 
      62   -238075.34   -238075.34 
      63   -238075.35   -238075.35 
      64   -238075.35   -238075.35 
      65   -238075.35   -238075.35 
Loop time of 6.12643 on 6 procs for 63 steps with 53760 atoms

100.0% CPU use with 6 MPI tasks x 1 OpenMP threads

Minimization stats:
  Stopping criterion = energy tolerance
  Energy initial, next-to-last, final = 
         -238064.68198      -238075.34513     -238075.345136
  Force two-norm initial, final = 13.4342 0.00495778
  Force max component initial, final = 0.309569 6.83013e-05
  Final line search alpha, max atom move = 1 6.83013e-05
  Iterations, force evaluations = 63 126

MPI task timing breakdown:
Section |  min time  |  avg time  |  max time  |%varavg| %total
---------------------------------------------------------------
Pair    | 4.6212     | 5.1412     | 5.7044     |  17.7 | 83.92
Neigh   | 0          | 0          | 0          |   0.0 |  0.00
Comm    | 0.23723    | 0.80838    | 1.3347     |  45.4 | 13.19
Output  | 0.02356    | 0.023864   | 0.02519    |   0.4 |  0.39
Modify  | 0.0087299  | 0.0099349  | 0.01185    |   1.2 |  0.16
Other   |            | 0.143      |            |       |  2.33

Nlocal:    8960 ave 8960 max 8960 min
Histogram: 6 0 0 0 0 0 0 0 0 0
Nghost:    11722.3 ave 13895 max 10552 min
Histogram: 4 0 0 0 0 0 0 0 0 2
Neighs:    980821 ave 1.01203e+06 max 941568 min
Histogram: 2 0 0 0 0 0 2 0 0 2
FullNghs:  0 ave 0 max 0 min
Histogram: 6 0 0 0 0 0 0 0 0 0

Total # of neighbors = 5884928
Ave neighs/atom = 109.467
Neighbor list builds = 0
Dangerous builds = 0
variable Ef equal "c_eatoms"
variable Cf equal 1.60217657e-16
variable A equal (cella*cellb)*1e-20
variable SFE equal ((${Ef}-${Eo})*${Cf})/${A}
variable SFE equal ((-238075.345134928-${Eo})*${Cf})/${A}
variable SFE equal ((-238075.345134928--238159.276198223)*${Cf})/${A}
variable SFE equal ((-238075.345134928--238159.276198223)*1.60217657e-16)/${A}
variable SFE equal ((-238075.345134928--238159.276198223)*1.60217657e-16)/4.80619470511564e-17

#variable Ef equal "c_eatoms" computes the final energy of the system after sliding is done
#variable A is the area of the Stacking fault plane
#variable Cf is the conversion factor of electro volts to millijoules
#variable SFE is the stacking-fault energy of the system
####################################
# SIMULATION DONE
print "All done"
All done
print "Initial energy of atoms = ${Eo} eV"
Initial energy of atoms = -238159.276198223 eV
print "Final energy of atoms = ${Ef} eV"
Final energy of atoms = -238075.345134928 eV
print "Stacking-fault energy = ${SFE} mJ/m^2"
Stacking-fault energy = 279.789711730351 mJ/m^2
Total wall time: 0:00:06
