LAMMPS (17 Nov 2015)
WARNING: OMP_NUM_THREADS environment is not set. (../comm.cpp:90)
  using 1 OpenMP thread(s) per MPI task
# Input file for Stack Fault Energy surface of Nickel: originally Richard Glaze, 2014
# Modified Dec 2019 for generalised stacking faults

# --------------------- INITIALIZAITION ---------------------
read_restart ../../init/restart.opt
  orthogonal box = (-0.305467 -0.308632 -0.539994) to (69.2831 70.0011 122.476)
  1 by 2 by 3 MPI processor grid
  53760 atoms

change_box all boundary p p s
variable sca equal 16
variable scb equal 28
variable scc equal 10
variable latparam1 equal 3.52
variable x_displace equal -0.44992606356570614
variable xdim equal ${latparam1}*sqrt(6)/2*${sca}
variable xdim equal 3.52*sqrt(6)/2*${sca}
variable xdim equal 3.52*sqrt(6)/2*16
variable ydim equal ${latparam1}*sqrt(2)/2*${scb}
variable ydim equal 3.52*sqrt(2)/2*${scb}
variable ydim equal 3.52*sqrt(2)/2*28
variable zmid equal ${latparam1}*sqrt(3)*${scc}
variable zmid equal 3.52*sqrt(3)*${scc}
variable zmid equal 3.52*sqrt(3)*10
variable ztop equal ${zmid}*2
variable ztop equal 60.9681884264245*2
# --------------------- ATOM DEFINITION ---------------------
# Not needed because restarted
# --------------------- FORCE FIELDS ---------------------
pair_style eam/alloy
pair_coeff * * ../../../NiAlCoCrMoTiWTa.set Al Co Ni
#pair_coeff * * Ni99.eam.alloy Ni Ni
# Also not needed because restarted
# --------------------- SETTINGS ---------------------
compute peratom all pe/atom
compute eatoms all reduce sum c_peratom
compute csym all centro/atom fcc
thermo 1
thermo_style custom step pe c_eatoms
#dump 1 all custom 1 dump.relax.1.* id type xs ys zs c_peratom c_csym
run 0
WARNING: No fixes defined, atoms won't move (../verlet.cpp:55)
Neighbor list info ...
  2 neighbor list requests
  update every 1 steps, delay 10 steps, check yes
  max neighbors/atom: 2000, page size: 100000
  master list distance cutoff = 8.56034
  ghost atom cutoff = 8.56034
  binsize = 4.28017 -> bins = 17 17 29
Memory usage per processor = 5.18855 Mbytes
Step PotEng eatoms 
      38   -234482.26   -234482.26 
Loop time of 3.89417e-06 on 6 procs for 0 steps with 53760 atoms

166.9% CPU use with 6 MPI tasks x 1 OpenMP threads

MPI task timing breakdown:
Section |  min time  |  avg time  |  max time  |%varavg| %total
---------------------------------------------------------------
Pair    | 0          | 0          | 0          |   0.0 |  0.00
Neigh   | 0          | 0          | 0          |   0.0 |  0.00
Comm    | 0          | 0          | 0          |   0.0 |  0.00
Output  | 0          | 0          | 0          |   0.0 |  0.00
Modify  | 0          | 0          | 0          |   0.0 |  0.00
Other   |            | 3.894e-06  |            |       |100.00

Nlocal:    8960 ave 9125 max 8849 min
Histogram: 2 1 0 0 1 0 1 0 0 1
Nghost:    12178 ave 14551 max 10965 min
Histogram: 4 0 0 0 0 0 0 0 0 2
Neighs:    976936 ave 1.02163e+06 max 917197 min
Histogram: 1 1 0 0 0 0 1 1 0 2
FullNghs:  0 ave 0 max 0 min
Histogram: 6 0 0 0 0 0 0 0 0 0

Total # of neighbors = 5861616
Ave neighs/atom = 109.033
Neighbor list builds = 0
Dangerous builds = 0
#this command creates a model of the script before the displacement and minimization occur
variable E equal "c_eatoms"
variable Eo equal $E
variable Eo equal -234482.259789123
#variable E equal "c_eatoms" computes the initial energy of the model before any sliding is done
#E is necessary to store the initial energy in Eo
#group bot region 1
#group top region 2
# Groups are preserved after restart
displace_atoms top move ${x_displace} 0.0 0.0 units box
displace_atoms top move -0.449926063565706 0.0 0.0 units box

#displace_atoms is the command neccessary to move atoms into the next stacking arrangement (ie: A -> B)

fix 1 all setforce 0 0 NULL
min_style cg
minimize 1e-10 1e-10 1000 1000
WARNING: Resetting reneighboring criteria during minimization (../min.cpp:168)
Neighbor list info ...
  2 neighbor list requests
  update every 1 steps, delay 0 steps, check yes
  max neighbors/atom: 2000, page size: 100000
  master list distance cutoff = 8.56034
  ghost atom cutoff = 8.56034
  binsize = 4.28017 -> bins = 17 17 29
Memory usage per processor = 7.68855 Mbytes
Step PotEng eatoms 
      38   -234376.64   -234376.64 
      39   -234399.23   -234399.23 
      40   -234411.43   -234411.43 
      41   -234417.37   -234417.37 
      42   -234422.18   -234422.18 
      43   -234423.68   -234423.68 
      44   -234425.31   -234425.31 
      45   -234425.65   -234425.65 
      46   -234425.91   -234425.91 
      47    -234426.2    -234426.2 
      48   -234426.48   -234426.48 
      49   -234426.58   -234426.58 
      50   -234426.64   -234426.64 
      51    -234426.7    -234426.7 
      52   -234426.77   -234426.77 
      53   -234426.82   -234426.82 
      54   -234426.85   -234426.85 
      55   -234426.87   -234426.87 
      56    -234426.9    -234426.9 
      57   -234426.92   -234426.92 
      58   -234426.94   -234426.94 
      59   -234426.96   -234426.96 
      60   -234426.97   -234426.97 
      61   -234426.98   -234426.98 
      62   -234426.99   -234426.99 
      63      -234427      -234427 
      64      -234427      -234427 
      65   -234427.01   -234427.01 
      66   -234427.01   -234427.01 
      67   -234427.02   -234427.02 
      68   -234427.02   -234427.02 
      69   -234427.03   -234427.03 
      70   -234427.03   -234427.03 
      71   -234427.03   -234427.03 
      72   -234427.04   -234427.04 
      73   -234427.04   -234427.04 
      74   -234427.04   -234427.04 
      75   -234427.05   -234427.05 
      76   -234427.05   -234427.05 
      77   -234427.05   -234427.05 
      78   -234427.06   -234427.06 
      79   -234427.06   -234427.06 
      80   -234427.06   -234427.06 
      81   -234427.06   -234427.06 
      82   -234427.07   -234427.07 
      83   -234427.07   -234427.07 
      84   -234427.07   -234427.07 
      85   -234427.07   -234427.07 
      86   -234427.07   -234427.07 
      87   -234427.08   -234427.08 
      88   -234427.08   -234427.08 
      89   -234427.08   -234427.08 
      90   -234427.08   -234427.08 
      91   -234427.08   -234427.08 
      92   -234427.08   -234427.08 
      93   -234427.08   -234427.08 
      94   -234427.09   -234427.09 
      95   -234427.09   -234427.09 
      96   -234427.09   -234427.09 
      97   -234427.09   -234427.09 
      98   -234427.09   -234427.09 
      99   -234427.09   -234427.09 
     100   -234427.09   -234427.09 
     101   -234427.09   -234427.09 
     102   -234427.09   -234427.09 
     103   -234427.09   -234427.09 
     104   -234427.09   -234427.09 
     105   -234427.09   -234427.09 
     106   -234427.09   -234427.09 
     107    -234427.1    -234427.1 
     108    -234427.1    -234427.1 
     109    -234427.1    -234427.1 
     110    -234427.1    -234427.1 
     111    -234427.1    -234427.1 
     112    -234427.1    -234427.1 
     113    -234427.1    -234427.1 
     114    -234427.1    -234427.1 
     115    -234427.1    -234427.1 
     116    -234427.1    -234427.1 
     117    -234427.1    -234427.1 
     118    -234427.1    -234427.1 
     119    -234427.1    -234427.1 
     120    -234427.1    -234427.1 
     121    -234427.1    -234427.1 
     122    -234427.1    -234427.1 
     123    -234427.1    -234427.1 
     124    -234427.1    -234427.1 
     125    -234427.1    -234427.1 
     126    -234427.1    -234427.1 
Loop time of 10.0013 on 6 procs for 88 steps with 53760 atoms

99.9% CPU use with 6 MPI tasks x 1 OpenMP threads

Minimization stats:
  Stopping criterion = energy tolerance
  Energy initial, next-to-last, final = 
        -234376.639005     -234427.096813     -234427.096835
  Force two-norm initial, final = 23.2831 0.0150918
  Force max component initial, final = 1.57974 0.00206798
  Final line search alpha, max atom move = 1 0.00206798
  Iterations, force evaluations = 88 171

MPI task timing breakdown:
Section |  min time  |  avg time  |  max time  |%varavg| %total
---------------------------------------------------------------
Pair    | 7.3493     | 8.309      | 9.4807     |  27.0 | 83.08
Neigh   | 0          | 0          | 0          |   0.0 |  0.00
Comm    | 0.27363    | 1.4535     | 2.4242     |  65.0 | 14.53
Output  | 0.034154   | 0.034567   | 0.036453   |   0.5 |  0.35
Modify  | 0.011671   | 0.01339    | 0.015288   |   1.1 |  0.13
Other   |            | 0.1908     |            |       |  1.91

Nlocal:    8960 ave 9125 max 8849 min
Histogram: 2 1 0 0 1 0 1 0 0 1
Nghost:    12262 ave 14635 max 11009 min
Histogram: 4 0 0 0 0 0 0 0 0 2
Neighs:    977220 ave 1.02261e+06 max 917045 min
Histogram: 1 1 0 0 0 0 1 1 0 2
FullNghs:  0 ave 0 max 0 min
Histogram: 6 0 0 0 0 0 0 0 0 0

Total # of neighbors = 5863321
Ave neighs/atom = 109.065
Neighbor list builds = 0
Dangerous builds = 0
variable Ef equal "c_eatoms"
variable Cf equal 1.60217657e-16
variable A equal (cella*cellb)*1e-20
variable SFE equal ((${Ef}-${Eo})*${Cf})/${A}
variable SFE equal ((-234427.09683521-${Eo})*${Cf})/${A}
variable SFE equal ((-234427.09683521--234482.259789123)*${Cf})/${A}
variable SFE equal ((-234427.09683521--234482.259789123)*1.60217657e-16)/${A}
variable SFE equal ((-234427.09683521--234482.259789123)*1.60217657e-16)/4.89275170426208e-17

#variable Ef equal "c_eatoms" computes the final energy of the system after sliding is done
#variable A is the area of the Stacking fault plane
#variable Cf is the conversion factor of electro volts to millijoules
#variable SFE is the stacking-fault energy of the system
####################################
# SIMULATION DONE
print "All done"
All done
print "Initial energy of atoms = ${Eo} eV"
Initial energy of atoms = -234482.259789123 eV
print "Final energy of atoms = ${Ef} eV"
Final energy of atoms = -234427.09683521 eV
print "Stacking-fault energy = ${SFE} mJ/m^2"
Stacking-fault energy = 180.636168834038 mJ/m^2
Total wall time: 0:00:10
