LAMMPS (17 Nov 2015)
WARNING: OMP_NUM_THREADS environment is not set. (../comm.cpp:90)
  using 1 OpenMP thread(s) per MPI task
# Input file for Stack Fault Energy surface of Nickel: originally Richard Glaze, 2014
# Modified Dec 2019 for generalised stacking faults

# --------------------- INITIALIZAITION ---------------------
read_restart ../../init/restart.opt
  orthogonal box = (-0.305467 -0.308632 -0.539994) to (69.2831 70.0011 122.476)
  1 by 2 by 3 MPI processor grid
  53760 atoms

change_box all boundary p p s
variable sca equal 16
variable scb equal 28
variable scc equal 10
variable latparam1 equal 3.52
variable x_displace equal -0.7498767726095102
variable xdim equal ${latparam1}*sqrt(6)/2*${sca}
variable xdim equal 3.52*sqrt(6)/2*${sca}
variable xdim equal 3.52*sqrt(6)/2*16
variable ydim equal ${latparam1}*sqrt(2)/2*${scb}
variable ydim equal 3.52*sqrt(2)/2*${scb}
variable ydim equal 3.52*sqrt(2)/2*28
variable zmid equal ${latparam1}*sqrt(3)*${scc}
variable zmid equal 3.52*sqrt(3)*${scc}
variable zmid equal 3.52*sqrt(3)*10
variable ztop equal ${zmid}*2
variable ztop equal 60.9681884264245*2
# --------------------- ATOM DEFINITION ---------------------
# Not needed because restarted
# --------------------- FORCE FIELDS ---------------------
pair_style eam/alloy
pair_coeff * * ../../../NiAlCoCrMoTiWTa.set Al Co Ni
#pair_coeff * * Ni99.eam.alloy Ni Ni
# Also not needed because restarted
# --------------------- SETTINGS ---------------------
compute peratom all pe/atom
compute eatoms all reduce sum c_peratom
compute csym all centro/atom fcc
thermo 1
thermo_style custom step pe c_eatoms
#dump 1 all custom 1 dump.relax.1.* id type xs ys zs c_peratom c_csym
run 0
WARNING: No fixes defined, atoms won't move (../verlet.cpp:55)
Neighbor list info ...
  2 neighbor list requests
  update every 1 steps, delay 10 steps, check yes
  max neighbors/atom: 2000, page size: 100000
  master list distance cutoff = 8.56034
  ghost atom cutoff = 8.56034
  binsize = 4.28017 -> bins = 17 17 29
Memory usage per processor = 5.18855 Mbytes
Step PotEng eatoms 
      38   -234482.26   -234482.26 
Loop time of 5.44389e-06 on 6 procs for 0 steps with 53760 atoms

131.6% CPU use with 6 MPI tasks x 1 OpenMP threads

MPI task timing breakdown:
Section |  min time  |  avg time  |  max time  |%varavg| %total
---------------------------------------------------------------
Pair    | 0          | 0          | 0          |   0.0 |  0.00
Neigh   | 0          | 0          | 0          |   0.0 |  0.00
Comm    | 0          | 0          | 0          |   0.0 |  0.00
Output  | 0          | 0          | 0          |   0.0 |  0.00
Modify  | 0          | 0          | 0          |   0.0 |  0.00
Other   |            | 5.444e-06  |            |       |100.00

Nlocal:    8960 ave 9125 max 8849 min
Histogram: 2 1 0 0 1 0 1 0 0 1
Nghost:    12178 ave 14551 max 10965 min
Histogram: 4 0 0 0 0 0 0 0 0 2
Neighs:    976936 ave 1.02163e+06 max 917197 min
Histogram: 1 1 0 0 0 0 1 1 0 2
FullNghs:  0 ave 0 max 0 min
Histogram: 6 0 0 0 0 0 0 0 0 0

Total # of neighbors = 5861616
Ave neighs/atom = 109.033
Neighbor list builds = 0
Dangerous builds = 0
#this command creates a model of the script before the displacement and minimization occur
variable E equal "c_eatoms"
variable Eo equal $E
variable Eo equal -234482.259789123
#variable E equal "c_eatoms" computes the initial energy of the model before any sliding is done
#E is necessary to store the initial energy in Eo
#group bot region 1
#group top region 2
# Groups are preserved after restart
displace_atoms top move ${x_displace} 0.0 0.0 units box
displace_atoms top move -0.74987677260951 0.0 0.0 units box

#displace_atoms is the command neccessary to move atoms into the next stacking arrangement (ie: A -> B)

fix 1 all setforce 0 0 NULL
min_style cg
minimize 1e-10 1e-10 1000 1000
WARNING: Resetting reneighboring criteria during minimization (../min.cpp:168)
Neighbor list info ...
  2 neighbor list requests
  update every 1 steps, delay 0 steps, check yes
  max neighbors/atom: 2000, page size: 100000
  master list distance cutoff = 8.56034
  ghost atom cutoff = 8.56034
  binsize = 4.28017 -> bins = 17 17 29
Memory usage per processor = 7.68855 Mbytes
Step PotEng eatoms 
      38   -234257.41   -234257.41 
      39   -234308.91   -234308.91 
      40   -234325.69   -234325.69 
      41   -234335.01   -234335.01 
      42   -234341.94   -234341.94 
      43   -234344.74   -234344.74 
      44   -234346.83   -234346.83 
      45   -234347.55   -234347.55 
      46   -234347.89   -234347.89 
      47   -234348.14   -234348.14 
      48   -234348.41   -234348.41 
      49   -234348.58   -234348.58 
      50   -234348.71   -234348.71 
      51   -234348.83   -234348.83 
      52   -234348.92   -234348.92 
      53   -234348.98   -234348.98 
      54   -234349.04   -234349.04 
      55   -234349.08   -234349.08 
      56   -234349.12   -234349.12 
      57   -234349.15   -234349.15 
      58   -234349.18   -234349.18 
      59    -234349.2    -234349.2 
      60   -234349.22   -234349.22 
      61   -234349.24   -234349.24 
      62   -234349.26   -234349.26 
      63   -234349.28   -234349.28 
      64   -234349.29   -234349.29 
      65    -234349.3    -234349.3 
      66   -234349.32   -234349.32 
      67   -234349.33   -234349.33 
      68   -234349.34   -234349.34 
      69   -234349.34   -234349.34 
      70   -234349.35   -234349.35 
      71   -234349.36   -234349.36 
      72   -234349.36   -234349.36 
      73   -234349.37   -234349.37 
      74   -234349.38   -234349.38 
      75   -234349.39   -234349.39 
      76   -234349.39   -234349.39 
      77    -234349.4    -234349.4 
      78   -234349.41   -234349.41 
      79   -234349.42   -234349.42 
      80   -234349.43   -234349.43 
      81   -234349.44   -234349.44 
      82   -234349.44   -234349.44 
      83   -234349.45   -234349.45 
      84   -234349.46   -234349.46 
      85   -234349.46   -234349.46 
      86   -234349.47   -234349.47 
      87   -234349.47   -234349.47 
      88   -234349.48   -234349.48 
      89   -234349.48   -234349.48 
      90   -234349.49   -234349.49 
      91   -234349.49   -234349.49 
      92   -234349.49   -234349.49 
      93    -234349.5    -234349.5 
      94    -234349.5    -234349.5 
      95    -234349.5    -234349.5 
      96    -234349.5    -234349.5 
      97   -234349.51   -234349.51 
      98   -234349.51   -234349.51 
      99   -234349.51   -234349.51 
     100   -234349.51   -234349.51 
     101   -234349.51   -234349.51 
     102   -234349.52   -234349.52 
     103   -234349.52   -234349.52 
     104   -234349.52   -234349.52 
     105   -234349.52   -234349.52 
     106   -234349.52   -234349.52 
     107   -234349.52   -234349.52 
     108   -234349.52   -234349.52 
     109   -234349.52   -234349.52 
     110   -234349.53   -234349.53 
     111   -234349.53   -234349.53 
     112   -234349.53   -234349.53 
     113   -234349.53   -234349.53 
     114   -234349.53   -234349.53 
     115   -234349.53   -234349.53 
     116   -234349.53   -234349.53 
     117   -234349.53   -234349.53 
     118   -234349.53   -234349.53 
     119   -234349.53   -234349.53 
     120   -234349.53   -234349.53 
     121   -234349.53   -234349.53 
     122   -234349.53   -234349.53 
     123   -234349.53   -234349.53 
     124   -234349.53   -234349.53 
     125   -234349.53   -234349.53 
     126   -234349.53   -234349.53 
     127   -234349.53   -234349.53 
     128   -234349.53   -234349.53 
     129   -234349.53   -234349.53 
     130   -234349.53   -234349.53 
     131   -234349.53   -234349.53 
     132   -234349.53   -234349.53 
     133   -234349.53   -234349.53 
     134   -234349.53   -234349.53 
Loop time of 11.0925 on 6 procs for 96 steps with 53760 atoms

100.0% CPU use with 6 MPI tasks x 1 OpenMP threads

Minimization stats:
  Stopping criterion = energy tolerance
  Energy initial, next-to-last, final = 
        -234257.412749     -234349.528648     -234349.528671
  Force two-norm initial, final = 44.9242 0.0177254
  Force max component initial, final = 2.1399 0.00349857
  Final line search alpha, max atom move = 1 0.00349857
  Iterations, force evaluations = 96 186

MPI task timing breakdown:
Section |  min time  |  avg time  |  max time  |%varavg| %total
---------------------------------------------------------------
Pair    | 8.6717     | 9.2429     | 10.088     |  17.8 | 83.33
Neigh   | 0          | 0          | 0          |   0.0 |  0.00
Comm    | 0.73607    | 1.591      | 2.1712     |  43.3 | 14.34
Output  | 0.036184   | 0.036601   | 0.03848    |   0.4 |  0.33
Modify  | 0.012565   | 0.014813   | 0.017442   |   1.5 |  0.13
Other   |            | 0.2072     |            |       |  1.87

Nlocal:    8960 ave 9125 max 8849 min
Histogram: 2 1 0 0 1 0 1 0 0 1
Nghost:    12175.3 ave 14535 max 10973 min
Histogram: 4 0 0 0 0 0 0 0 0 2
Neighs:    979048 ave 1.02826e+06 max 916961 min
Histogram: 1 1 0 0 0 0 2 0 0 2
FullNghs:  0 ave 0 max 0 min
Histogram: 6 0 0 0 0 0 0 0 0 0

Total # of neighbors = 5874287
Ave neighs/atom = 109.269
Neighbor list builds = 0
Dangerous builds = 0
variable Ef equal "c_eatoms"
variable Cf equal 1.60217657e-16
variable A equal (cella*cellb)*1e-20
variable SFE equal ((${Ef}-${Eo})*${Cf})/${A}
variable SFE equal ((-234349.528671081-${Eo})*${Cf})/${A}
variable SFE equal ((-234349.528671081--234482.259789123)*${Cf})/${A}
variable SFE equal ((-234349.528671081--234482.259789123)*1.60217657e-16)/${A}
variable SFE equal ((-234349.528671081--234482.259789123)*1.60217657e-16)/4.89275170426208e-17

#variable Ef equal "c_eatoms" computes the final energy of the system after sliding is done
#variable A is the area of the Stacking fault plane
#variable Cf is the conversion factor of electro volts to millijoules
#variable SFE is the stacking-fault energy of the system
####################################
# SIMULATION DONE
print "All done"
All done
print "Initial energy of atoms = ${Eo} eV"
Initial energy of atoms = -234482.259789123 eV
print "Final energy of atoms = ${Ef} eV"
Final energy of atoms = -234349.528671081 eV
print "Stacking-fault energy = ${SFE} mJ/m^2"
Stacking-fault energy = 434.640260309016 mJ/m^2
Total wall time: 0:00:11
