LAMMPS (17 Nov 2015)
WARNING: OMP_NUM_THREADS environment is not set. (../comm.cpp:90)
  using 1 OpenMP thread(s) per MPI task
# Input file for Stack Fault Energy surface of Nickel: originally Richard Glaze, 2014
# Modified Dec 2019 for generalised stacking faults

# --------------------- INITIALIZAITION ---------------------
read_restart ../../init/restart.opt
  orthogonal box = (0.00367712 0.00371523 0.0065003) to (68.974 69.6887 121.93)
  1 by 2 by 3 MPI processor grid
  53760 atoms

change_box all boundary p p s
variable sca equal 16
variable scb equal 28
variable scc equal 10
variable latparam1 equal 3.52
variable x_displace equal -0.37160709543153364
variable xdim equal ${latparam1}*sqrt(6)/2*${sca}
variable xdim equal 3.52*sqrt(6)/2*${sca}
variable xdim equal 3.52*sqrt(6)/2*16
variable ydim equal ${latparam1}*sqrt(2)/2*${scb}
variable ydim equal 3.52*sqrt(2)/2*${scb}
variable ydim equal 3.52*sqrt(2)/2*28
variable zmid equal ${latparam1}*sqrt(3)*${scc}
variable zmid equal 3.52*sqrt(3)*${scc}
variable zmid equal 3.52*sqrt(3)*10
variable ztop equal ${zmid}*2
variable ztop equal 60.9681884264245*2
# --------------------- ATOM DEFINITION ---------------------
# Not needed because restarted
# --------------------- FORCE FIELDS ---------------------
pair_style eam/alloy
pair_coeff * * ../../../NiAlCoCrMoTiWTa.set Ni Ni
#pair_coeff * * Ni99.eam.alloy Ni Ni
# Also not needed because restarted
# --------------------- SETTINGS ---------------------
compute peratom all pe/atom
compute eatoms all reduce sum c_peratom
compute csym all centro/atom fcc
thermo 1
thermo_style custom step pe c_eatoms
#dump 1 all custom 1 dump.relax.1.* id type xs ys zs c_peratom c_csym
run 0
WARNING: No fixes defined, atoms won't move (../verlet.cpp:55)
Neighbor list info ...
  2 neighbor list requests
  update every 1 steps, delay 10 steps, check yes
  max neighbors/atom: 2000, page size: 100000
  master list distance cutoff = 8.56034
  ghost atom cutoff = 8.56034
  binsize = 4.28017 -> bins = 17 17 29
Memory usage per processor = 5.21199 Mbytes
Step PotEng eatoms 
       2   -238159.28   -238159.28 
Loop time of 3.45707e-06 on 6 procs for 0 steps with 53760 atoms

168.7% CPU use with 6 MPI tasks x 1 OpenMP threads

MPI task timing breakdown:
Section |  min time  |  avg time  |  max time  |%varavg| %total
---------------------------------------------------------------
Pair    | 0          | 0          | 0          |   0.0 |  0.00
Neigh   | 0          | 0          | 0          |   0.0 |  0.00
Comm    | 0          | 0          | 0          |   0.0 |  0.00
Output  | 0          | 0          | 0          |   0.0 |  0.00
Modify  | 0          | 0          | 0          |   0.0 |  0.00
Other   |            | 3.457e-06  |            |       |100.00

Nlocal:    8960 ave 8960 max 8960 min
Histogram: 6 0 0 0 0 0 0 0 0 0
Nghost:    11638.3 ave 13811 max 10552 min
Histogram: 4 0 0 0 0 0 0 0 0 2
Neighs:    977984 ave 1.00355e+06 max 941536 min
Histogram: 2 0 0 0 0 0 0 2 0 2
FullNghs:  0 ave 0 max 0 min
Histogram: 6 0 0 0 0 0 0 0 0 0

Total # of neighbors = 5867904
Ave neighs/atom = 109.15
Neighbor list builds = 0
Dangerous builds = 0
#this command creates a model of the script before the displacement and minimization occur
variable E equal "c_eatoms"
variable Eo equal $E
variable Eo equal -238159.276198223
#variable E equal "c_eatoms" computes the initial energy of the model before any sliding is done
#E is necessary to store the initial energy in Eo
#group bot region 1
#group top region 2
# Groups are preserved after restart
displace_atoms top move ${x_displace} 0.0 0.0 units box
displace_atoms top move -0.371607095431534 0.0 0.0 units box

#displace_atoms is the command neccessary to move atoms into the next stacking arrangement (ie: A -> B)

fix 1 all setforce 0 0 NULL
min_style cg
minimize 1e-10 1e-10 1000 1000
WARNING: Resetting reneighboring criteria during minimization (../min.cpp:168)
Neighbor list info ...
  2 neighbor list requests
  update every 1 steps, delay 0 steps, check yes
  max neighbors/atom: 2000, page size: 100000
  master list distance cutoff = 8.56034
  ghost atom cutoff = 8.56034
  binsize = 4.28017 -> bins = 17 17 29
Memory usage per processor = 7.71199 Mbytes
Step PotEng eatoms 
       2   -238114.51   -238114.51 
       3   -238116.07   -238116.07 
       4   -238116.34   -238116.34 
       5   -238116.48   -238116.48 
       6   -238116.54   -238116.54 
       7   -238116.61   -238116.61 
       8   -238116.64   -238116.64 
       9   -238116.66   -238116.66 
      10   -238116.68   -238116.68 
      11    -238116.7    -238116.7 
      12   -238116.71   -238116.71 
      13   -238116.72   -238116.72 
      14   -238116.73   -238116.73 
      15   -238116.73   -238116.73 
      16   -238116.74   -238116.74 
      17   -238116.74   -238116.74 
      18   -238116.75   -238116.75 
      19   -238116.75   -238116.75 
      20   -238116.75   -238116.75 
      21   -238116.76   -238116.76 
      22   -238116.76   -238116.76 
      23   -238116.76   -238116.76 
      24   -238116.77   -238116.77 
      25   -238116.77   -238116.77 
      26   -238116.77   -238116.77 
      27   -238116.77   -238116.77 
      28   -238116.77   -238116.77 
      29   -238116.77   -238116.77 
      30   -238116.78   -238116.78 
      31   -238116.78   -238116.78 
      32   -238116.78   -238116.78 
      33   -238116.78   -238116.78 
      34   -238116.79   -238116.79 
      35    -238116.8    -238116.8 
      36    -238116.8    -238116.8 
      37   -238116.81   -238116.81 
      38   -238116.81   -238116.81 
      39   -238116.81   -238116.81 
      40   -238116.81   -238116.81 
      41   -238116.81   -238116.81 
      42   -238116.81   -238116.81 
      43   -238116.81   -238116.81 
      44   -238116.81   -238116.81 
      45   -238116.81   -238116.81 
      46   -238116.81   -238116.81 
      47   -238116.81   -238116.81 
      48   -238116.81   -238116.81 
      49   -238116.81   -238116.81 
      50   -238116.81   -238116.81 
      51   -238116.81   -238116.81 
      52   -238116.81   -238116.81 
      53   -238116.81   -238116.81 
      54   -238116.81   -238116.81 
      55   -238116.81   -238116.81 
      56   -238116.81   -238116.81 
      57   -238116.81   -238116.81 
Loop time of 4.93323 on 6 procs for 55 steps with 53760 atoms

100.0% CPU use with 6 MPI tasks x 1 OpenMP threads

Minimization stats:
  Stopping criterion = energy tolerance
  Energy initial, next-to-last, final = 
         -238114.51169     -238116.814545     -238116.814564
  Force two-norm initial, final = 7.40484 0.0149228
  Force max component initial, final = 0.163244 0.000172284
  Final line search alpha, max atom move = 1 0.000172284
  Iterations, force evaluations = 55 110

MPI task timing breakdown:
Section |  min time  |  avg time  |  max time  |%varavg| %total
---------------------------------------------------------------
Pair    | 3.6759     | 3.9883     | 4.497      |  17.8 | 80.85
Neigh   | 0          | 0          | 0          |   0.0 |  0.00
Comm    | 0.28709    | 0.79406    | 1.1038     |  40.2 | 16.10
Output  | 0.01977    | 0.019996   | 0.021036   |   0.3 |  0.41
Modify  | 0.0074532  | 0.008373   | 0.0093591  |   0.8 |  0.17
Other   |            | 0.1225     |            |       |  2.48

Nlocal:    8960 ave 8960 max 8960 min
Histogram: 6 0 0 0 0 0 0 0 0 0
Nghost:    11722.3 ave 13895 max 10552 min
Histogram: 4 0 0 0 0 0 0 0 0 2
Neighs:    978581 ave 1.00611e+06 max 940768 min
Histogram: 2 0 0 0 0 0 0 2 0 2
FullNghs:  0 ave 0 max 0 min
Histogram: 6 0 0 0 0 0 0 0 0 0

Total # of neighbors = 5871488
Ave neighs/atom = 109.217
Neighbor list builds = 0
Dangerous builds = 0
variable Ef equal "c_eatoms"
variable Cf equal 1.60217657e-16
variable A equal (cella*cellb)*1e-20
variable SFE equal ((${Ef}-${Eo})*${Cf})/${A}
variable SFE equal ((-238116.814563702-${Eo})*${Cf})/${A}
variable SFE equal ((-238116.814563702--238159.276198223)*${Cf})/${A}
variable SFE equal ((-238116.814563702--238159.276198223)*1.60217657e-16)/${A}
variable SFE equal ((-238116.814563702--238159.276198223)*1.60217657e-16)/4.80619470511564e-17

#variable Ef equal "c_eatoms" computes the final energy of the system after sliding is done
#variable A is the area of the Stacking fault plane
#variable Cf is the conversion factor of electro volts to millijoules
#variable SFE is the stacking-fault energy of the system
####################################
# SIMULATION DONE
print "All done"
All done
print "Initial energy of atoms = ${Eo} eV"
Initial energy of atoms = -238159.276198223 eV
print "Final energy of atoms = ${Ef} eV"
Final energy of atoms = -238116.814563702 eV
print "Stacking-fault energy = ${SFE} mJ/m^2"
Stacking-fault energy = 141.548647375915 mJ/m^2
Total wall time: 0:00:05
