LAMMPS (17 Nov 2015)
WARNING: OMP_NUM_THREADS environment is not set. (../comm.cpp:90)
  using 1 OpenMP thread(s) per MPI task
# Input file for Stack Fault Energy surface of Nickel: originally Richard Glaze, 2014
# Modified Dec 2019 for generalised stacking faults

# --------------------- INITIALIZAITION ---------------------
read_restart ../../init/restart.opt
  orthogonal box = (-0.305467 -0.308632 -0.539994) to (69.2831 70.0011 122.476)
  1 by 2 by 3 MPI processor grid
  53760 atoms

change_box all boundary p p s
variable sca equal 16
variable scb equal 28
variable scc equal 10
variable latparam1 equal 3.52
variable x_displace equal -1.0498274816533144
variable xdim equal ${latparam1}*sqrt(6)/2*${sca}
variable xdim equal 3.52*sqrt(6)/2*${sca}
variable xdim equal 3.52*sqrt(6)/2*16
variable ydim equal ${latparam1}*sqrt(2)/2*${scb}
variable ydim equal 3.52*sqrt(2)/2*${scb}
variable ydim equal 3.52*sqrt(2)/2*28
variable zmid equal ${latparam1}*sqrt(3)*${scc}
variable zmid equal 3.52*sqrt(3)*${scc}
variable zmid equal 3.52*sqrt(3)*10
variable ztop equal ${zmid}*2
variable ztop equal 60.9681884264245*2
# --------------------- ATOM DEFINITION ---------------------
# Not needed because restarted
# --------------------- FORCE FIELDS ---------------------
pair_style eam/alloy
pair_coeff * * ../../../NiAlCoCrMoTiWTa.set Al Co Ni
#pair_coeff * * Ni99.eam.alloy Ni Ni
# Also not needed because restarted
# --------------------- SETTINGS ---------------------
compute peratom all pe/atom
compute eatoms all reduce sum c_peratom
compute csym all centro/atom fcc
thermo 1
thermo_style custom step pe c_eatoms
#dump 1 all custom 1 dump.relax.1.* id type xs ys zs c_peratom c_csym
run 0
WARNING: No fixes defined, atoms won't move (../verlet.cpp:55)
Neighbor list info ...
  2 neighbor list requests
  update every 1 steps, delay 10 steps, check yes
  max neighbors/atom: 2000, page size: 100000
  master list distance cutoff = 8.56034
  ghost atom cutoff = 8.56034
  binsize = 4.28017 -> bins = 17 17 29
Memory usage per processor = 5.18855 Mbytes
Step PotEng eatoms 
      38   -234482.26   -234482.26 
Loop time of 3.77496e-06 on 6 procs for 0 steps with 53760 atoms

172.2% CPU use with 6 MPI tasks x 1 OpenMP threads

MPI task timing breakdown:
Section |  min time  |  avg time  |  max time  |%varavg| %total
---------------------------------------------------------------
Pair    | 0          | 0          | 0          |   0.0 |  0.00
Neigh   | 0          | 0          | 0          |   0.0 |  0.00
Comm    | 0          | 0          | 0          |   0.0 |  0.00
Output  | 0          | 0          | 0          |   0.0 |  0.00
Modify  | 0          | 0          | 0          |   0.0 |  0.00
Other   |            | 3.775e-06  |            |       |100.00

Nlocal:    8960 ave 9125 max 8849 min
Histogram: 2 1 0 0 1 0 1 0 0 1
Nghost:    12178 ave 14551 max 10965 min
Histogram: 4 0 0 0 0 0 0 0 0 2
Neighs:    976936 ave 1.02163e+06 max 917197 min
Histogram: 1 1 0 0 0 0 1 1 0 2
FullNghs:  0 ave 0 max 0 min
Histogram: 6 0 0 0 0 0 0 0 0 0

Total # of neighbors = 5861616
Ave neighs/atom = 109.033
Neighbor list builds = 0
Dangerous builds = 0
#this command creates a model of the script before the displacement and minimization occur
variable E equal "c_eatoms"
variable Eo equal $E
variable Eo equal -234482.259789123
#variable E equal "c_eatoms" computes the initial energy of the model before any sliding is done
#E is necessary to store the initial energy in Eo
#group bot region 1
#group top region 2
# Groups are preserved after restart
displace_atoms top move ${x_displace} 0.0 0.0 units box
displace_atoms top move -1.04982748165331 0.0 0.0 units box

#displace_atoms is the command neccessary to move atoms into the next stacking arrangement (ie: A -> B)

fix 1 all setforce 0 0 NULL
min_style cg
minimize 1e-10 1e-10 1000 1000
WARNING: Resetting reneighboring criteria during minimization (../min.cpp:168)
Neighbor list info ...
  2 neighbor list requests
  update every 1 steps, delay 0 steps, check yes
  max neighbors/atom: 2000, page size: 100000
  master list distance cutoff = 8.56034
  ghost atom cutoff = 8.56034
  binsize = 4.28017 -> bins = 17 17 29
Memory usage per processor = 7.68855 Mbytes
Step PotEng eatoms 
      38   -234163.03   -234163.03 
      39   -234256.15   -234256.15 
      40   -234283.08   -234283.08 
      41   -234294.56   -234294.56 
      42   -234301.81   -234301.81 
      43   -234306.73   -234306.73 
      44   -234309.42   -234309.42 
      45    -234310.5    -234310.5 
      46   -234311.65   -234311.65 
      47   -234312.15   -234312.15 
      48   -234312.39   -234312.39 
      49   -234312.53   -234312.53 
      50   -234312.81   -234312.81 
      51   -234312.97   -234312.97 
      52   -234313.05   -234313.05 
      53   -234313.13   -234313.13 
      54   -234313.19   -234313.19 
      55   -234313.24   -234313.24 
      56   -234313.29   -234313.29 
      57   -234313.31   -234313.31 
      58   -234313.34   -234313.34 
      59   -234313.36   -234313.36 
      60   -234313.38   -234313.38 
      61    -234313.4    -234313.4 
      62   -234313.41   -234313.41 
      63   -234313.43   -234313.43 
      64   -234313.44   -234313.44 
      65   -234313.45   -234313.45 
      66   -234313.46   -234313.46 
      67   -234313.47   -234313.47 
      68   -234313.48   -234313.48 
      69   -234313.49   -234313.49 
      70    -234313.5    -234313.5 
      71   -234313.51   -234313.51 
      72   -234313.51   -234313.51 
      73   -234313.52   -234313.52 
      74   -234313.52   -234313.52 
      75   -234313.53   -234313.53 
      76   -234313.53   -234313.53 
      77   -234313.54   -234313.54 
      78   -234313.55   -234313.55 
      79   -234313.55   -234313.55 
      80   -234313.56   -234313.56 
      81   -234313.56   -234313.56 
      82   -234313.57   -234313.57 
      83   -234313.57   -234313.57 
      84   -234313.58   -234313.58 
      85   -234313.58   -234313.58 
      86   -234313.58   -234313.58 
      87   -234313.59   -234313.59 
      88   -234313.59   -234313.59 
      89    -234313.6    -234313.6 
      90    -234313.6    -234313.6 
      91    -234313.6    -234313.6 
      92   -234313.61   -234313.61 
      93   -234313.61   -234313.61 
      94   -234313.61   -234313.61 
      95   -234313.62   -234313.62 
      96   -234313.62   -234313.62 
      97   -234313.62   -234313.62 
      98   -234313.62   -234313.62 
      99   -234313.63   -234313.63 
     100   -234313.63   -234313.63 
     101   -234313.63   -234313.63 
     102   -234313.63   -234313.63 
     103   -234313.63   -234313.63 
     104   -234313.63   -234313.63 
     105   -234313.64   -234313.64 
     106   -234313.64   -234313.64 
     107   -234313.64   -234313.64 
     108   -234313.64   -234313.64 
     109   -234313.64   -234313.64 
     110   -234313.64   -234313.64 
     111   -234313.64   -234313.64 
     112   -234313.64   -234313.64 
     113   -234313.65   -234313.65 
     114   -234313.65   -234313.65 
     115   -234313.65   -234313.65 
     116   -234313.65   -234313.65 
     117   -234313.65   -234313.65 
     118   -234313.65   -234313.65 
     119   -234313.65   -234313.65 
     120   -234313.65   -234313.65 
     121   -234313.65   -234313.65 
     122   -234313.65   -234313.65 
     123   -234313.65   -234313.65 
     124   -234313.65   -234313.65 
     125   -234313.65   -234313.65 
     126   -234313.65   -234313.65 
     127   -234313.65   -234313.65 
     128   -234313.65   -234313.65 
     129   -234313.65   -234313.65 
     130   -234313.65   -234313.65 
     131   -234313.65   -234313.65 
     132   -234313.65   -234313.65 
     133   -234313.65   -234313.65 
     134   -234313.65   -234313.65 
     135   -234313.65   -234313.65 
     136   -234313.65   -234313.65 
     137   -234313.65   -234313.65 
     138   -234313.65   -234313.65 
Loop time of 10.9272 on 6 procs for 100 steps with 53760 atoms

99.9% CPU use with 6 MPI tasks x 1 OpenMP threads

Minimization stats:
  Stopping criterion = energy tolerance
  Energy initial, next-to-last, final = 
        -234163.025722     -234313.650542     -234313.650565
  Force two-norm initial, final = 74.2687 0.0195053
  Force max component initial, final = 3.58115 0.00830728
  Final line search alpha, max atom move = 1 0.00830728
  Iterations, force evaluations = 100 192

MPI task timing breakdown:
Section |  min time  |  avg time  |  max time  |%varavg| %total
---------------------------------------------------------------
Pair    | 8.5238     | 9.2979     | 10.442     |  26.5 | 85.09
Neigh   | 0          | 0          | 0          |   0.0 |  0.00
Comm    | 0.20663    | 1.3616     | 2.145      |  69.9 | 12.46
Output  | 0.037301   | 0.037803   | 0.04003    |   0.5 |  0.35
Modify  | 0.013839   | 0.014774   | 0.015381   |   0.4 |  0.14
Other   |            | 0.2152     |            |       |  1.97

Nlocal:    8960 ave 9125 max 8849 min
Histogram: 2 1 0 0 1 0 1 0 0 1
Nghost:    12262 ave 14635 max 11009 min
Histogram: 4 0 0 0 0 0 0 0 0 2
Neighs:    978318 ave 1.02554e+06 max 917378 min
Histogram: 1 1 0 0 0 0 2 0 0 2
FullNghs:  0 ave 0 max 0 min
Histogram: 6 0 0 0 0 0 0 0 0 0

Total # of neighbors = 5869907
Ave neighs/atom = 109.187
Neighbor list builds = 0
Dangerous builds = 0
variable Ef equal "c_eatoms"
variable Cf equal 1.60217657e-16
variable A equal (cella*cellb)*1e-20
variable SFE equal ((${Ef}-${Eo})*${Cf})/${A}
variable SFE equal ((-234313.650564978-${Eo})*${Cf})/${A}
variable SFE equal ((-234313.650564978--234482.259789123)*${Cf})/${A}
variable SFE equal ((-234313.650564978--234482.259789123)*1.60217657e-16)/${A}
variable SFE equal ((-234313.650564978--234482.259789123)*1.60217657e-16)/4.89275170426208e-17

#variable Ef equal "c_eatoms" computes the final energy of the system after sliding is done
#variable A is the area of the Stacking fault plane
#variable Cf is the conversion factor of electro volts to millijoules
#variable SFE is the stacking-fault energy of the system
####################################
# SIMULATION DONE
print "All done"
All done
print "Initial energy of atoms = ${Eo} eV"
Initial energy of atoms = -234482.259789123 eV
print "Final energy of atoms = ${Ef} eV"
Final energy of atoms = -234313.650564978 eV
print "Stacking-fault energy = ${SFE} mJ/m^2"
Stacking-fault energy = 552.126420344797 mJ/m^2
Total wall time: 0:00:11
