LAMMPS (17 Nov 2015)
WARNING: OMP_NUM_THREADS environment is not set. (../comm.cpp:90)
  using 1 OpenMP thread(s) per MPI task
# Input file for Stack Fault Energy surface of Nickel: originally Richard Glaze, 2014
# Modified Dec 2019 for generalised stacking faults

# --------------------- INITIALIZAITION ---------------------
read_restart ../../init/restart.opt
  orthogonal box = (-0.305467 -0.308632 -0.539994) to (69.2831 70.0011 122.476)
  1 by 2 by 3 MPI processor grid
  53760 atoms

change_box all boundary p p s
variable sca equal 16
variable scb equal 28
variable scc equal 10
variable latparam1 equal 3.52
variable x_displace equal 0.0
variable xdim equal ${latparam1}*sqrt(6)/2*${sca}
variable xdim equal 3.52*sqrt(6)/2*${sca}
variable xdim equal 3.52*sqrt(6)/2*16
variable ydim equal ${latparam1}*sqrt(2)/2*${scb}
variable ydim equal 3.52*sqrt(2)/2*${scb}
variable ydim equal 3.52*sqrt(2)/2*28
variable zmid equal ${latparam1}*sqrt(3)*${scc}
variable zmid equal 3.52*sqrt(3)*${scc}
variable zmid equal 3.52*sqrt(3)*10
variable ztop equal ${zmid}*2
variable ztop equal 60.9681884264245*2
# --------------------- ATOM DEFINITION ---------------------
# Not needed because restarted
# --------------------- FORCE FIELDS ---------------------
pair_style eam/alloy
pair_coeff * * ../../../NiAlCoCrMoTiWTa.set Al Co Ni
#pair_coeff * * Ni99.eam.alloy Ni Ni
# Also not needed because restarted
# --------------------- SETTINGS ---------------------
compute peratom all pe/atom
compute eatoms all reduce sum c_peratom
compute csym all centro/atom fcc
thermo 1
thermo_style custom step pe c_eatoms
#dump 1 all custom 1 dump.relax.1.* id type xs ys zs c_peratom c_csym
run 0
WARNING: No fixes defined, atoms won't move (../verlet.cpp:55)
Neighbor list info ...
  2 neighbor list requests
  update every 1 steps, delay 10 steps, check yes
  max neighbors/atom: 2000, page size: 100000
  master list distance cutoff = 8.56034
  ghost atom cutoff = 8.56034
  binsize = 4.28017 -> bins = 17 17 29
Memory usage per processor = 5.18855 Mbytes
Step PotEng eatoms 
      38   -234482.26   -234482.26 
Loop time of 3.57628e-06 on 6 procs for 0 steps with 53760 atoms

153.8% CPU use with 6 MPI tasks x 1 OpenMP threads

MPI task timing breakdown:
Section |  min time  |  avg time  |  max time  |%varavg| %total
---------------------------------------------------------------
Pair    | 0          | 0          | 0          |   0.0 |  0.00
Neigh   | 0          | 0          | 0          |   0.0 |  0.00
Comm    | 0          | 0          | 0          |   0.0 |  0.00
Output  | 0          | 0          | 0          |   0.0 |  0.00
Modify  | 0          | 0          | 0          |   0.0 |  0.00
Other   |            | 3.576e-06  |            |       |100.00

Nlocal:    8960 ave 9125 max 8849 min
Histogram: 2 1 0 0 1 0 1 0 0 1
Nghost:    12178 ave 14551 max 10965 min
Histogram: 4 0 0 0 0 0 0 0 0 2
Neighs:    976936 ave 1.02163e+06 max 917197 min
Histogram: 1 1 0 0 0 0 1 1 0 2
FullNghs:  0 ave 0 max 0 min
Histogram: 6 0 0 0 0 0 0 0 0 0

Total # of neighbors = 5861616
Ave neighs/atom = 109.033
Neighbor list builds = 0
Dangerous builds = 0
#this command creates a model of the script before the displacement and minimization occur
variable E equal "c_eatoms"
variable Eo equal $E
variable Eo equal -234482.259789123
#variable E equal "c_eatoms" computes the initial energy of the model before any sliding is done
#E is necessary to store the initial energy in Eo
#group bot region 1
#group top region 2
# Groups are preserved after restart
displace_atoms top move ${x_displace} 0.0 0.0 units box
displace_atoms top move 0 0.0 0.0 units box

#displace_atoms is the command neccessary to move atoms into the next stacking arrangement (ie: A -> B)

fix 1 all setforce 0 0 NULL
min_style cg
minimize 1e-10 1e-10 1000 1000
WARNING: Resetting reneighboring criteria during minimization (../min.cpp:168)
Neighbor list info ...
  2 neighbor list requests
  update every 1 steps, delay 0 steps, check yes
  max neighbors/atom: 2000, page size: 100000
  master list distance cutoff = 8.56034
  ghost atom cutoff = 8.56034
  binsize = 4.28017 -> bins = 17 17 29
Memory usage per processor = 7.68855 Mbytes
Step PotEng eatoms 
      38   -234482.26   -234482.26 
      39   -234498.71   -234498.71 
      40   -234507.92   -234507.92 
      41   -234512.79   -234512.79 
      42   -234515.21   -234515.21 
      43   -234517.54   -234517.54 
      44   -234517.91   -234517.91 
      45   -234518.64   -234518.64 
      46   -234518.89   -234518.89 
      47   -234518.98   -234518.98 
      48   -234519.08   -234519.08 
      49   -234519.15   -234519.15 
      50   -234519.21   -234519.21 
      51   -234519.24   -234519.24 
      52   -234519.26   -234519.26 
      53   -234519.28   -234519.28 
      54    -234519.3    -234519.3 
      55   -234519.31   -234519.31 
      56   -234519.32   -234519.32 
      57   -234519.32   -234519.32 
      58   -234519.33   -234519.33 
      59   -234519.34   -234519.34 
      60   -234519.34   -234519.34 
      61   -234519.34   -234519.34 
      62   -234519.35   -234519.35 
      63   -234519.35   -234519.35 
      64   -234519.35   -234519.35 
      65   -234519.35   -234519.35 
      66   -234519.36   -234519.36 
      67   -234519.36   -234519.36 
      68   -234519.36   -234519.36 
      69   -234519.36   -234519.36 
      70   -234519.36   -234519.36 
      71   -234519.36   -234519.36 
      72   -234519.36   -234519.36 
      73   -234519.36   -234519.36 
      74   -234519.36   -234519.36 
      75   -234519.36   -234519.36 
      76   -234519.37   -234519.37 
      77   -234519.37   -234519.37 
      78   -234519.37   -234519.37 
      79   -234519.37   -234519.37 
      80   -234519.37   -234519.37 
      81   -234519.37   -234519.37 
      82   -234519.37   -234519.37 
      83   -234519.37   -234519.37 
      84   -234519.37   -234519.37 
      85   -234519.37   -234519.37 
      86   -234519.37   -234519.37 
      87   -234519.37   -234519.37 
      88   -234519.37   -234519.37 
      89   -234519.37   -234519.37 
      90   -234519.37   -234519.37 
      91   -234519.37   -234519.37 
      92   -234519.37   -234519.37 
      93   -234519.37   -234519.37 
      94   -234519.37   -234519.37 
      95   -234519.37   -234519.37 
      96   -234519.37   -234519.37 
      97   -234519.37   -234519.37 
      98   -234519.37   -234519.37 
      99   -234519.37   -234519.37 
     100   -234519.37   -234519.37 
     101   -234519.37   -234519.37 
     102   -234519.37   -234519.37 
     103   -234519.37   -234519.37 
     104   -234519.37   -234519.37 
     105   -234519.37   -234519.37 
     106   -234519.37   -234519.37 
     107   -234519.37   -234519.37 
     108   -234519.37   -234519.37 
     109   -234519.37   -234519.37 
     110   -234519.37   -234519.37 
     111   -234519.37   -234519.37 
     112   -234519.37   -234519.37 
     113   -234519.37   -234519.37 
Loop time of 8.52028 on 6 procs for 75 steps with 53760 atoms

99.9% CPU use with 6 MPI tasks x 1 OpenMP threads

Minimization stats:
  Stopping criterion = energy tolerance
  Energy initial, next-to-last, final = 
        -234482.259789     -234519.368843     -234519.368865
  Force two-norm initial, final = 18.7468 0.0151328
  Force max component initial, final = 1.57974 0.000376944
  Final line search alpha, max atom move = 1 0.000376944
  Iterations, force evaluations = 75 144

MPI task timing breakdown:
Section |  min time  |  avg time  |  max time  |%varavg| %total
---------------------------------------------------------------
Pair    | 6.4288     | 7.1564     | 8.0486     |  22.6 | 83.99
Neigh   | 0          | 0          | 0          |   0.0 |  0.00
Comm    | 0.2607     | 1.1613     | 1.8973     |  56.5 | 13.63
Output  | 0.028093   | 0.028437   | 0.029963   |   0.4 |  0.33
Modify  | 0.010121   | 0.011435   | 0.013018   |   1.1 |  0.13
Other   |            | 0.1628     |            |       |  1.91

Nlocal:    8960 ave 9125 max 8849 min
Histogram: 2 1 0 0 1 0 1 0 0 1
Nghost:    12178 ave 14551 max 10965 min
Histogram: 4 0 0 0 0 0 0 0 0 2
Neighs:    976936 ave 1.02163e+06 max 917197 min
Histogram: 1 1 0 0 0 0 1 1 0 2
FullNghs:  0 ave 0 max 0 min
Histogram: 6 0 0 0 0 0 0 0 0 0

Total # of neighbors = 5861616
Ave neighs/atom = 109.033
Neighbor list builds = 0
Dangerous builds = 0
variable Ef equal "c_eatoms"
variable Cf equal 1.60217657e-16
variable A equal (cella*cellb)*1e-20
variable SFE equal ((${Ef}-${Eo})*${Cf})/${A}
variable SFE equal ((-234519.368865293-${Eo})*${Cf})/${A}
variable SFE equal ((-234519.368865293--234482.259789123)*${Cf})/${A}
variable SFE equal ((-234519.368865293--234482.259789123)*1.60217657e-16)/${A}
variable SFE equal ((-234519.368865293--234482.259789123)*1.60217657e-16)/4.89275170426208e-17

#variable Ef equal "c_eatoms" computes the final energy of the system after sliding is done
#variable A is the area of the Stacking fault plane
#variable Cf is the conversion factor of electro volts to millijoules
#variable SFE is the stacking-fault energy of the system
####################################
# SIMULATION DONE
print "All done"
All done
print "Initial energy of atoms = ${Eo} eV"
Initial energy of atoms = -234482.259789123 eV
print "Final energy of atoms = ${Ef} eV"
Final energy of atoms = -234519.368865293 eV
print "Stacking-fault energy = ${SFE} mJ/m^2"
Stacking-fault energy = -121.517084797409 mJ/m^2
Total wall time: 0:00:08
