LAMMPS (17 Nov 2015)
WARNING: OMP_NUM_THREADS environment is not set. (../comm.cpp:90)
  using 1 OpenMP thread(s) per MPI task
# Input file for Stack Fault Energy surface of Nickel: originally Richard Glaze, 2014
# Modified Dec 2019 for generalised stacking faults

# --------------------- INITIALIZAITION ---------------------
read_restart ../../init/restart.opt
  orthogonal box = (0.00367712 0.00371523 0.0065003) to (68.974 69.6887 121.93)
  1 by 2 by 3 MPI processor grid
  53760 atoms

change_box all boundary p p s
variable sca equal 16
variable scb equal 28
variable scc equal 10
variable latparam1 equal 3.52
variable x_displace equal -1.858035477157667
variable xdim equal ${latparam1}*sqrt(6)/2*${sca}
variable xdim equal 3.52*sqrt(6)/2*${sca}
variable xdim equal 3.52*sqrt(6)/2*16
variable ydim equal ${latparam1}*sqrt(2)/2*${scb}
variable ydim equal 3.52*sqrt(2)/2*${scb}
variable ydim equal 3.52*sqrt(2)/2*28
variable zmid equal ${latparam1}*sqrt(3)*${scc}
variable zmid equal 3.52*sqrt(3)*${scc}
variable zmid equal 3.52*sqrt(3)*10
variable ztop equal ${zmid}*2
variable ztop equal 60.9681884264245*2
# --------------------- ATOM DEFINITION ---------------------
# Not needed because restarted
# --------------------- FORCE FIELDS ---------------------
pair_style eam/alloy
pair_coeff * * ../../../NiAlCoCrMoTiWTa.set Ni Ni
#pair_coeff * * Ni99.eam.alloy Ni Ni
# Also not needed because restarted
# --------------------- SETTINGS ---------------------
compute peratom all pe/atom
compute eatoms all reduce sum c_peratom
compute csym all centro/atom fcc
thermo 1
thermo_style custom step pe c_eatoms
#dump 1 all custom 1 dump.relax.1.* id type xs ys zs c_peratom c_csym
run 0
WARNING: No fixes defined, atoms won't move (../verlet.cpp:55)
Neighbor list info ...
  2 neighbor list requests
  update every 1 steps, delay 10 steps, check yes
  max neighbors/atom: 2000, page size: 100000
  master list distance cutoff = 8.56034
  ghost atom cutoff = 8.56034
  binsize = 4.28017 -> bins = 17 17 29
Memory usage per processor = 5.21199 Mbytes
Step PotEng eatoms 
       2   -238159.28   -238159.28 
Loop time of 5.60284e-06 on 6 procs for 0 steps with 53760 atoms

127.9% CPU use with 6 MPI tasks x 1 OpenMP threads

MPI task timing breakdown:
Section |  min time  |  avg time  |  max time  |%varavg| %total
---------------------------------------------------------------
Pair    | 0          | 0          | 0          |   0.0 |  0.00
Neigh   | 0          | 0          | 0          |   0.0 |  0.00
Comm    | 0          | 0          | 0          |   0.0 |  0.00
Output  | 0          | 0          | 0          |   0.0 |  0.00
Modify  | 0          | 0          | 0          |   0.0 |  0.00
Other   |            | 5.603e-06  |            |       |100.00

Nlocal:    8960 ave 8960 max 8960 min
Histogram: 6 0 0 0 0 0 0 0 0 0
Nghost:    11638.3 ave 13811 max 10552 min
Histogram: 4 0 0 0 0 0 0 0 0 2
Neighs:    977984 ave 1.00355e+06 max 941536 min
Histogram: 2 0 0 0 0 0 0 2 0 2
FullNghs:  0 ave 0 max 0 min
Histogram: 6 0 0 0 0 0 0 0 0 0

Total # of neighbors = 5867904
Ave neighs/atom = 109.15
Neighbor list builds = 0
Dangerous builds = 0
#this command creates a model of the script before the displacement and minimization occur
variable E equal "c_eatoms"
variable Eo equal $E
variable Eo equal -238159.276198223
#variable E equal "c_eatoms" computes the initial energy of the model before any sliding is done
#E is necessary to store the initial energy in Eo
#group bot region 1
#group top region 2
# Groups are preserved after restart
displace_atoms top move ${x_displace} 0.0 0.0 units box
displace_atoms top move -1.85803547715767 0.0 0.0 units box

#displace_atoms is the command neccessary to move atoms into the next stacking arrangement (ie: A -> B)

fix 1 all setforce 0 0 NULL
min_style cg
minimize 1e-10 1e-10 1000 1000
WARNING: Resetting reneighboring criteria during minimization (../min.cpp:168)
Neighbor list info ...
  2 neighbor list requests
  update every 1 steps, delay 0 steps, check yes
  max neighbors/atom: 2000, page size: 100000
  master list distance cutoff = 8.56034
  ghost atom cutoff = 8.56034
  binsize = 4.28017 -> bins = 17 17 29
Memory usage per processor = 7.71199 Mbytes
Step PotEng eatoms 
       2   -238034.16   -238034.16 
       3   -238044.38   -238044.38 
       4    -238047.1    -238047.1 
       5   -238048.51   -238048.51 
       6   -238049.32   -238049.32 
       7   -238050.13   -238050.13 
       8   -238050.52   -238050.52 
       9   -238050.81   -238050.81 
      10    -238051.1    -238051.1 
      11   -238051.28   -238051.28 
      12   -238051.43   -238051.43 
      13   -238051.57   -238051.57 
      14   -238051.68   -238051.68 
      15   -238051.77   -238051.77 
      16   -238051.86   -238051.86 
      17   -238051.92   -238051.92 
      18   -238051.98   -238051.98 
      19   -238052.04   -238052.04 
      20   -238052.09   -238052.09 
      21   -238052.13   -238052.13 
      22   -238052.17   -238052.17 
      23   -238052.21   -238052.21 
      24   -238052.24   -238052.24 
      25   -238052.27   -238052.27 
      26    -238052.3    -238052.3 
      27   -238052.33   -238052.33 
      28   -238052.35   -238052.35 
      29   -238052.37   -238052.37 
      30   -238052.39   -238052.39 
      31   -238052.42   -238052.42 
      32   -238052.45   -238052.45 
      33    -238052.5    -238052.5 
      34   -238052.58   -238052.58 
      35   -238052.69   -238052.69 
      36   -238052.77   -238052.77 
      37   -238052.83   -238052.83 
      38   -238052.86   -238052.86 
      39   -238052.89   -238052.89 
      40   -238052.91   -238052.91 
      41   -238052.92   -238052.92 
      42   -238052.93   -238052.93 
      43   -238052.94   -238052.94 
      44   -238052.94   -238052.94 
      45   -238052.95   -238052.95 
      46   -238052.95   -238052.95 
      47   -238052.95   -238052.95 
      48   -238052.95   -238052.95 
      49   -238052.96   -238052.96 
      50   -238052.96   -238052.96 
      51   -238052.96   -238052.96 
      52   -238052.96   -238052.96 
      53   -238052.96   -238052.96 
      54   -238052.96   -238052.96 
      55   -238052.96   -238052.96 
      56   -238052.96   -238052.96 
      57   -238052.96   -238052.96 
      58   -238052.96   -238052.96 
      59   -238052.96   -238052.96 
      60   -238052.96   -238052.96 
      61   -238052.96   -238052.96 
      62   -238052.96   -238052.96 
      63   -238052.96   -238052.96 
      64   -238052.96   -238052.96 
      65   -238052.96   -238052.96 
Loop time of 6.49617 on 6 procs for 63 steps with 53760 atoms

100.0% CPU use with 6 MPI tasks x 1 OpenMP threads

Minimization stats:
  Stopping criterion = energy tolerance
  Energy initial, next-to-last, final = 
        -238034.163105     -238052.962985     -238052.963004
  Force two-norm initial, final = 19.2493 0.00982936
  Force max component initial, final = 0.44969 0.000125521
  Final line search alpha, max atom move = 1 0.000125521
  Iterations, force evaluations = 63 126

MPI task timing breakdown:
Section |  min time  |  avg time  |  max time  |%varavg| %total
---------------------------------------------------------------
Pair    | 4.7581     | 5.2936     | 6.2263     |  24.8 | 81.49
Neigh   | 0          | 0          | 0          |   0.0 |  0.00
Comm    | 0.086648   | 1.0281     | 1.5705     |  56.9 | 15.83
Output  | 0.023691   | 0.023987   | 0.02527    |   0.4 |  0.37
Modify  | 0.0079236  | 0.0094488  | 0.010687   |   1.0 |  0.15
Other   |            | 0.1411     |            |       |  2.17

Nlocal:    8960 ave 8960 max 8960 min
Histogram: 6 0 0 0 0 0 0 0 0 0
Nghost:    11722.3 ave 13895 max 10552 min
Histogram: 4 0 0 0 0 0 0 0 0 2
Neighs:    980821 ave 1.01203e+06 max 941568 min
Histogram: 2 0 0 0 0 0 2 0 0 2
FullNghs:  0 ave 0 max 0 min
Histogram: 6 0 0 0 0 0 0 0 0 0

Total # of neighbors = 5884928
Ave neighs/atom = 109.467
Neighbor list builds = 0
Dangerous builds = 0
variable Ef equal "c_eatoms"
variable Cf equal 1.60217657e-16
variable A equal (cella*cellb)*1e-20
variable SFE equal ((${Ef}-${Eo})*${Cf})/${A}
variable SFE equal ((-238052.963003036-${Eo})*${Cf})/${A}
variable SFE equal ((-238052.963003036--238159.276198223)*${Cf})/${A}
variable SFE equal ((-238052.963003036--238159.276198223)*1.60217657e-16)/${A}
variable SFE equal ((-238052.963003036--238159.276198223)*1.60217657e-16)/4.80619470511564e-17

#variable Ef equal "c_eatoms" computes the final energy of the system after sliding is done
#variable A is the area of the Stacking fault plane
#variable Cf is the conversion factor of electro volts to millijoules
#variable SFE is the stacking-fault energy of the system
####################################
# SIMULATION DONE
print "All done"
All done
print "Initial energy of atoms = ${Eo} eV"
Initial energy of atoms = -238159.276198223 eV
print "Final energy of atoms = ${Ef} eV"
Final energy of atoms = -238052.963003036 eV
print "Stacking-fault energy = ${SFE} mJ/m^2"
Stacking-fault energy = 354.40201835587 mJ/m^2
Total wall time: 0:00:06
