LAMMPS (17 Nov 2015)
WARNING: OMP_NUM_THREADS environment is not set. (../comm.cpp:90)
  using 1 OpenMP thread(s) per MPI task
# Input file for Stack Fault Energy surface of Nickel: originally Richard Glaze, 2014
# Modified Dec 2019 for generalised stacking faults

# --------------------- INITIALIZAITION ---------------------
read_restart ../../init/restart.opt
  orthogonal box = (-0.305467 -0.308632 -0.539994) to (69.2831 70.0011 122.476)
  1 by 2 by 3 MPI processor grid
  53760 atoms

change_box all boundary p p s
variable sca equal 16
variable scb equal 28
variable scc equal 10
variable latparam1 equal 3.52
variable x_displace equal -1.3497781906971185
variable xdim equal ${latparam1}*sqrt(6)/2*${sca}
variable xdim equal 3.52*sqrt(6)/2*${sca}
variable xdim equal 3.52*sqrt(6)/2*16
variable ydim equal ${latparam1}*sqrt(2)/2*${scb}
variable ydim equal 3.52*sqrt(2)/2*${scb}
variable ydim equal 3.52*sqrt(2)/2*28
variable zmid equal ${latparam1}*sqrt(3)*${scc}
variable zmid equal 3.52*sqrt(3)*${scc}
variable zmid equal 3.52*sqrt(3)*10
variable ztop equal ${zmid}*2
variable ztop equal 60.9681884264245*2
# --------------------- ATOM DEFINITION ---------------------
# Not needed because restarted
# --------------------- FORCE FIELDS ---------------------
pair_style eam/alloy
pair_coeff * * ../../../NiAlCoCrMoTiWTa.set Al Co Ni
#pair_coeff * * Ni99.eam.alloy Ni Ni
# Also not needed because restarted
# --------------------- SETTINGS ---------------------
compute peratom all pe/atom
compute eatoms all reduce sum c_peratom
compute csym all centro/atom fcc
thermo 1
thermo_style custom step pe c_eatoms
#dump 1 all custom 1 dump.relax.1.* id type xs ys zs c_peratom c_csym
run 0
WARNING: No fixes defined, atoms won't move (../verlet.cpp:55)
Neighbor list info ...
  2 neighbor list requests
  update every 1 steps, delay 10 steps, check yes
  max neighbors/atom: 2000, page size: 100000
  master list distance cutoff = 8.56034
  ghost atom cutoff = 8.56034
  binsize = 4.28017 -> bins = 17 17 29
Memory usage per processor = 5.18855 Mbytes
Step PotEng eatoms 
      38   -234482.26   -234482.26 
Loop time of 6.23862e-06 on 6 procs for 0 steps with 53760 atoms

117.5% CPU use with 6 MPI tasks x 1 OpenMP threads

MPI task timing breakdown:
Section |  min time  |  avg time  |  max time  |%varavg| %total
---------------------------------------------------------------
Pair    | 0          | 0          | 0          |   0.0 |  0.00
Neigh   | 0          | 0          | 0          |   0.0 |  0.00
Comm    | 0          | 0          | 0          |   0.0 |  0.00
Output  | 0          | 0          | 0          |   0.0 |  0.00
Modify  | 0          | 0          | 0          |   0.0 |  0.00
Other   |            | 6.239e-06  |            |       |100.00

Nlocal:    8960 ave 9125 max 8849 min
Histogram: 2 1 0 0 1 0 1 0 0 1
Nghost:    12178 ave 14551 max 10965 min
Histogram: 4 0 0 0 0 0 0 0 0 2
Neighs:    976936 ave 1.02163e+06 max 917197 min
Histogram: 1 1 0 0 0 0 1 1 0 2
FullNghs:  0 ave 0 max 0 min
Histogram: 6 0 0 0 0 0 0 0 0 0

Total # of neighbors = 5861616
Ave neighs/atom = 109.033
Neighbor list builds = 0
Dangerous builds = 0
#this command creates a model of the script before the displacement and minimization occur
variable E equal "c_eatoms"
variable Eo equal $E
variable Eo equal -234482.259789123
#variable E equal "c_eatoms" computes the initial energy of the model before any sliding is done
#E is necessary to store the initial energy in Eo
#group bot region 1
#group top region 2
# Groups are preserved after restart
displace_atoms top move ${x_displace} 0.0 0.0 units box
displace_atoms top move -1.34977819069712 0.0 0.0 units box

#displace_atoms is the command neccessary to move atoms into the next stacking arrangement (ie: A -> B)

fix 1 all setforce 0 0 NULL
min_style cg
minimize 1e-10 1e-10 1000 1000
WARNING: Resetting reneighboring criteria during minimization (../min.cpp:168)
Neighbor list info ...
  2 neighbor list requests
  update every 1 steps, delay 0 steps, check yes
  max neighbors/atom: 2000, page size: 100000
  master list distance cutoff = 8.56034
  ghost atom cutoff = 8.56034
  binsize = 4.28017 -> bins = 17 17 29
Memory usage per processor = 7.68855 Mbytes
Step PotEng eatoms 
      38   -234126.75   -234126.75 
      39   -234249.18   -234249.18 
      40   -234283.32   -234283.32 
      41   -234296.93   -234296.93 
      42   -234304.64   -234304.64 
      43   -234309.75   -234309.75 
      44   -234313.24   -234313.24 
      45   -234314.73   -234314.73 
      46   -234315.69   -234315.69 
      47   -234316.45   -234316.45 
      48   -234316.87   -234316.87 
      49   -234317.02   -234317.02 
      50   -234317.31   -234317.31 
      51   -234317.47   -234317.47 
      52   -234317.55   -234317.55 
      53   -234317.61   -234317.61 
      54   -234317.67   -234317.67 
      55   -234317.72   -234317.72 
      56   -234317.76   -234317.76 
      57   -234317.79   -234317.79 
      58    -234317.8    -234317.8 
      59   -234317.82   -234317.82 
      60   -234317.83   -234317.83 
      61   -234317.85   -234317.85 
      62   -234317.86   -234317.86 
      63   -234317.86   -234317.86 
      64   -234317.87   -234317.87 
      65   -234317.88   -234317.88 
      66   -234317.89   -234317.89 
      67   -234317.89   -234317.89 
      68    -234317.9    -234317.9 
      69    -234317.9    -234317.9 
      70   -234317.91   -234317.91 
      71   -234317.91   -234317.91 
      72   -234317.92   -234317.92 
      73   -234317.92   -234317.92 
      74   -234317.92   -234317.92 
      75   -234317.92   -234317.92 
      76   -234317.93   -234317.93 
      77   -234317.93   -234317.93 
      78   -234317.93   -234317.93 
      79   -234317.93   -234317.93 
      80   -234317.94   -234317.94 
      81   -234317.94   -234317.94 
      82   -234317.94   -234317.94 
      83   -234317.94   -234317.94 
      84   -234317.94   -234317.94 
      85   -234317.95   -234317.95 
      86   -234317.95   -234317.95 
      87   -234317.95   -234317.95 
      88   -234317.95   -234317.95 
      89   -234317.95   -234317.95 
      90   -234317.95   -234317.95 
      91   -234317.95   -234317.95 
      92   -234317.95   -234317.95 
      93   -234317.95   -234317.95 
      94   -234317.95   -234317.95 
      95   -234317.95   -234317.95 
      96   -234317.95   -234317.95 
      97   -234317.95   -234317.95 
      98   -234317.96   -234317.96 
      99   -234317.96   -234317.96 
     100   -234317.96   -234317.96 
     101   -234317.96   -234317.96 
     102   -234317.96   -234317.96 
     103   -234317.96   -234317.96 
     104   -234317.96   -234317.96 
     105   -234317.96   -234317.96 
     106   -234317.96   -234317.96 
     107   -234317.96   -234317.96 
     108   -234317.96   -234317.96 
     109   -234317.96   -234317.96 
     110   -234317.96   -234317.96 
     111   -234317.96   -234317.96 
     112   -234317.96   -234317.96 
     113   -234317.96   -234317.96 
     114   -234317.96   -234317.96 
     115   -234317.96   -234317.96 
     116   -234317.96   -234317.96 
     117   -234317.96   -234317.96 
     118   -234317.97   -234317.97 
     119   -234317.97   -234317.97 
     120   -234317.97   -234317.97 
     121   -234317.97   -234317.97 
     122   -234317.97   -234317.97 
     123   -234317.97   -234317.97 
     124   -234317.97   -234317.97 
     125   -234317.97   -234317.97 
     126   -234317.97   -234317.97 
     127   -234317.97   -234317.97 
     128   -234317.97   -234317.97 
     129   -234317.97   -234317.97 
     130   -234317.97   -234317.97 
     131   -234317.97   -234317.97 
     132   -234317.97   -234317.97 
     133   -234317.97   -234317.97 
     134   -234317.97   -234317.97 
     135   -234317.97   -234317.97 
     136   -234317.97   -234317.97 
     137   -234317.97   -234317.97 
     138   -234317.97   -234317.97 
Loop time of 11.3467 on 6 procs for 100 steps with 53760 atoms

99.9% CPU use with 6 MPI tasks x 1 OpenMP threads

Minimization stats:
  Stopping criterion = energy tolerance
  Energy initial, next-to-last, final = 
        -234126.746606     -234317.967059     -234317.967082
  Force two-norm initial, final = 93.4208 0.0196017
  Force max component initial, final = 4.45292 0.00598266
  Final line search alpha, max atom move = 1 0.00598266
  Iterations, force evaluations = 100 190

MPI task timing breakdown:
Section |  min time  |  avg time  |  max time  |%varavg| %total
---------------------------------------------------------------
Pair    | 8.4787     | 9.3993     | 10.855     |  28.1 | 82.84
Neigh   | 0          | 0          | 0          |   0.0 |  0.00
Comm    | 0.21557    | 1.6855     | 2.6187     |  66.8 | 14.85
Output  | 0.037894   | 0.038338   | 0.040338   |   0.5 |  0.34
Modify  | 0.012526   | 0.014686   | 0.01751    |   1.7 |  0.13
Other   |            | 0.2088     |            |       |  1.84

Nlocal:    8960 ave 9125 max 8849 min
Histogram: 2 1 0 0 1 0 1 0 0 1
Nghost:    12172.7 ave 14533 max 10966 min
Histogram: 4 0 0 0 0 0 0 0 0 2
Neighs:    978708 ave 1.02719e+06 max 916959 min
Histogram: 1 1 0 0 0 0 2 0 0 2
FullNghs:  0 ave 0 max 0 min
Histogram: 6 0 0 0 0 0 0 0 0 0

Total # of neighbors = 5872246
Ave neighs/atom = 109.231
Neighbor list builds = 0
Dangerous builds = 0
variable Ef equal "c_eatoms"
variable Cf equal 1.60217657e-16
variable A equal (cella*cellb)*1e-20
variable SFE equal ((${Ef}-${Eo})*${Cf})/${A}
variable SFE equal ((-234317.967081824-${Eo})*${Cf})/${A}
variable SFE equal ((-234317.967081824--234482.259789123)*${Cf})/${A}
variable SFE equal ((-234317.967081824--234482.259789123)*1.60217657e-16)/${A}
variable SFE equal ((-234317.967081824--234482.259789123)*1.60217657e-16)/4.89275170426208e-17

#variable Ef equal "c_eatoms" computes the final energy of the system after sliding is done
#variable A is the area of the Stacking fault plane
#variable Cf is the conversion factor of electro volts to millijoules
#variable SFE is the stacking-fault energy of the system
####################################
# SIMULATION DONE
print "All done"
All done
print "Initial energy of atoms = ${Eo} eV"
Initial energy of atoms = -234482.259789123 eV
print "Final energy of atoms = ${Ef} eV"
Final energy of atoms = -234317.967081824 eV
print "Stacking-fault energy = ${SFE} mJ/m^2"
Stacking-fault energy = 537.991588714848 mJ/m^2
Total wall time: 0:00:11
