LAMMPS (17 Nov 2015)
WARNING: OMP_NUM_THREADS environment is not set. (../comm.cpp:90)
  using 1 OpenMP thread(s) per MPI task
# Input file for Stack Fault Energy surface of Nickel: originally Richard Glaze, 2014
# Modified Dec 2019 for generalised stacking faults

# --------------------- INITIALIZAITION ---------------------
read_restart ../../init/restart.opt
  orthogonal box = (-0.305467 -0.308632 -0.539994) to (69.2831 70.0011 122.476)
  1 by 2 by 3 MPI processor grid
  53760 atoms

change_box all boundary p p s
variable sca equal 16
variable scb equal 28
variable scc equal 10
variable latparam1 equal 3.52
variable x_displace equal -0.2999507090438041
variable xdim equal ${latparam1}*sqrt(6)/2*${sca}
variable xdim equal 3.52*sqrt(6)/2*${sca}
variable xdim equal 3.52*sqrt(6)/2*16
variable ydim equal ${latparam1}*sqrt(2)/2*${scb}
variable ydim equal 3.52*sqrt(2)/2*${scb}
variable ydim equal 3.52*sqrt(2)/2*28
variable zmid equal ${latparam1}*sqrt(3)*${scc}
variable zmid equal 3.52*sqrt(3)*${scc}
variable zmid equal 3.52*sqrt(3)*10
variable ztop equal ${zmid}*2
variable ztop equal 60.9681884264245*2
# --------------------- ATOM DEFINITION ---------------------
# Not needed because restarted
# --------------------- FORCE FIELDS ---------------------
pair_style eam/alloy
pair_coeff * * ../../../NiAlCoCrMoTiWTa.set Al Co Ni
#pair_coeff * * Ni99.eam.alloy Ni Ni
# Also not needed because restarted
# --------------------- SETTINGS ---------------------
compute peratom all pe/atom
compute eatoms all reduce sum c_peratom
compute csym all centro/atom fcc
thermo 1
thermo_style custom step pe c_eatoms
#dump 1 all custom 1 dump.relax.1.* id type xs ys zs c_peratom c_csym
run 0
WARNING: No fixes defined, atoms won't move (../verlet.cpp:55)
Neighbor list info ...
  2 neighbor list requests
  update every 1 steps, delay 10 steps, check yes
  max neighbors/atom: 2000, page size: 100000
  master list distance cutoff = 8.56034
  ghost atom cutoff = 8.56034
  binsize = 4.28017 -> bins = 17 17 29
Memory usage per processor = 5.18855 Mbytes
Step PotEng eatoms 
      38   -234482.26   -234482.26 
Loop time of 4.52995e-06 on 6 procs for 0 steps with 53760 atoms

147.2% CPU use with 6 MPI tasks x 1 OpenMP threads

MPI task timing breakdown:
Section |  min time  |  avg time  |  max time  |%varavg| %total
---------------------------------------------------------------
Pair    | 0          | 0          | 0          |   0.0 |  0.00
Neigh   | 0          | 0          | 0          |   0.0 |  0.00
Comm    | 0          | 0          | 0          |   0.0 |  0.00
Output  | 0          | 0          | 0          |   0.0 |  0.00
Modify  | 0          | 0          | 0          |   0.0 |  0.00
Other   |            | 4.53e-06   |            |       |100.00

Nlocal:    8960 ave 9125 max 8849 min
Histogram: 2 1 0 0 1 0 1 0 0 1
Nghost:    12178 ave 14551 max 10965 min
Histogram: 4 0 0 0 0 0 0 0 0 2
Neighs:    976936 ave 1.02163e+06 max 917197 min
Histogram: 1 1 0 0 0 0 1 1 0 2
FullNghs:  0 ave 0 max 0 min
Histogram: 6 0 0 0 0 0 0 0 0 0

Total # of neighbors = 5861616
Ave neighs/atom = 109.033
Neighbor list builds = 0
Dangerous builds = 0
#this command creates a model of the script before the displacement and minimization occur
variable E equal "c_eatoms"
variable Eo equal $E
variable Eo equal -234482.259789123
#variable E equal "c_eatoms" computes the initial energy of the model before any sliding is done
#E is necessary to store the initial energy in Eo
#group bot region 1
#group top region 2
# Groups are preserved after restart
displace_atoms top move ${x_displace} 0.0 0.0 units box
displace_atoms top move -0.299950709043804 0.0 0.0 units box

#displace_atoms is the command neccessary to move atoms into the next stacking arrangement (ie: A -> B)

fix 1 all setforce 0 0 NULL
min_style cg
minimize 1e-10 1e-10 1000 1000
WARNING: Resetting reneighboring criteria during minimization (../min.cpp:168)
Neighbor list info ...
  2 neighbor list requests
  update every 1 steps, delay 0 steps, check yes
  max neighbors/atom: 2000, page size: 100000
  master list distance cutoff = 8.56034
  ghost atom cutoff = 8.56034
  binsize = 4.28017 -> bins = 17 17 29
Memory usage per processor = 7.68855 Mbytes
Step PotEng eatoms 
      38   -234429.49   -234429.49 
      39   -234446.65   -234446.65 
      40   -234457.26   -234457.26 
      41   -234462.73   -234462.73 
      42   -234465.55   -234465.55 
      43   -234467.88   -234467.88 
      44   -234468.45   -234468.45 
      45   -234469.25   -234469.25 
      46   -234469.66   -234469.66 
      47   -234469.86   -234469.86 
      48   -234469.97   -234469.97 
      49   -234470.07   -234470.07 
      50   -234470.17   -234470.17 
      51   -234470.22   -234470.22 
      52   -234470.25   -234470.25 
      53   -234470.28   -234470.28 
      54   -234470.31   -234470.31 
      55   -234470.33   -234470.33 
      56   -234470.35   -234470.35 
      57   -234470.36   -234470.36 
      58   -234470.37   -234470.37 
      59   -234470.38   -234470.38 
      60   -234470.39   -234470.39 
      61    -234470.4    -234470.4 
      62    -234470.4    -234470.4 
      63   -234470.41   -234470.41 
      64   -234470.41   -234470.41 
      65   -234470.42   -234470.42 
      66   -234470.42   -234470.42 
      67   -234470.42   -234470.42 
      68   -234470.42   -234470.42 
      69   -234470.42   -234470.42 
      70   -234470.43   -234470.43 
      71   -234470.43   -234470.43 
      72   -234470.43   -234470.43 
      73   -234470.43   -234470.43 
      74   -234470.43   -234470.43 
      75   -234470.43   -234470.43 
      76   -234470.43   -234470.43 
      77   -234470.43   -234470.43 
      78   -234470.44   -234470.44 
      79   -234470.44   -234470.44 
      80   -234470.44   -234470.44 
      81   -234470.44   -234470.44 
      82   -234470.44   -234470.44 
      83   -234470.44   -234470.44 
      84   -234470.44   -234470.44 
      85   -234470.44   -234470.44 
      86   -234470.44   -234470.44 
      87   -234470.44   -234470.44 
      88   -234470.44   -234470.44 
      89   -234470.44   -234470.44 
      90   -234470.44   -234470.44 
      91   -234470.44   -234470.44 
      92   -234470.44   -234470.44 
      93   -234470.44   -234470.44 
      94   -234470.44   -234470.44 
      95   -234470.44   -234470.44 
      96   -234470.44   -234470.44 
      97   -234470.44   -234470.44 
      98   -234470.45   -234470.45 
      99   -234470.45   -234470.45 
     100   -234470.45   -234470.45 
     101   -234470.45   -234470.45 
     102   -234470.45   -234470.45 
     103   -234470.45   -234470.45 
     104   -234470.45   -234470.45 
     105   -234470.45   -234470.45 
     106   -234470.45   -234470.45 
     107   -234470.45   -234470.45 
     108   -234470.45   -234470.45 
     109   -234470.45   -234470.45 
     110   -234470.45   -234470.45 
     111   -234470.45   -234470.45 
     112   -234470.45   -234470.45 
     113   -234470.45   -234470.45 
     114   -234470.45   -234470.45 
     115   -234470.45   -234470.45 
     116   -234470.45   -234470.45 
     117   -234470.45   -234470.45 
     118   -234470.45   -234470.45 
     119   -234470.45   -234470.45 
     120   -234470.45   -234470.45 
     121   -234470.45   -234470.45 
Loop time of 9.32555 on 6 procs for 83 steps with 53760 atoms

99.9% CPU use with 6 MPI tasks x 1 OpenMP threads

Minimization stats:
  Stopping criterion = energy tolerance
  Energy initial, next-to-last, final = 
        -234429.489967      -234470.44754     -234470.447562
  Force two-norm initial, final = 19.167 0.0148703
  Force max component initial, final = 1.57974 0.000840064
  Final line search alpha, max atom move = 1 0.000840064
  Iterations, force evaluations = 83 162

MPI task timing breakdown:
Section |  min time  |  avg time  |  max time  |%varavg| %total
---------------------------------------------------------------
Pair    | 7.2025     | 7.9151     | 8.6905     |  20.3 | 84.88
Neigh   | 0          | 0          | 0          |   0.0 |  0.00
Comm    | 0.40152    | 1.1822     | 1.8999     |  53.0 | 12.68
Output  | 0.031325   | 0.031708   | 0.033533   |   0.5 |  0.34
Modify  | 0.012149   | 0.012874   | 0.013666   |   0.5 |  0.14
Other   |            | 0.1836     |            |       |  1.97

Nlocal:    8960 ave 9125 max 8849 min
Histogram: 2 1 0 0 1 0 1 0 0 1
Nghost:    12262 ave 14635 max 11009 min
Histogram: 4 0 0 0 0 0 0 0 0 2
Neighs:    977165 ave 1.02203e+06 max 917466 min
Histogram: 1 1 0 0 0 0 1 1 0 2
FullNghs:  0 ave 0 max 0 min
Histogram: 6 0 0 0 0 0 0 0 0 0

Total # of neighbors = 5862988
Ave neighs/atom = 109.059
Neighbor list builds = 0
Dangerous builds = 0
variable Ef equal "c_eatoms"
variable Cf equal 1.60217657e-16
variable A equal (cella*cellb)*1e-20
variable SFE equal ((${Ef}-${Eo})*${Cf})/${A}
variable SFE equal ((-234470.447561917-${Eo})*${Cf})/${A}
variable SFE equal ((-234470.447561917--234482.259789123)*${Cf})/${A}
variable SFE equal ((-234470.447561917--234482.259789123)*1.60217657e-16)/${A}
variable SFE equal ((-234470.447561917--234482.259789123)*1.60217657e-16)/4.89275170426208e-17

#variable Ef equal "c_eatoms" computes the final energy of the system after sliding is done
#variable A is the area of the Stacking fault plane
#variable Cf is the conversion factor of electro volts to millijoules
#variable SFE is the stacking-fault energy of the system
####################################
# SIMULATION DONE
print "All done"
All done
print "Initial energy of atoms = ${Eo} eV"
Initial energy of atoms = -234482.259789123 eV
print "Final energy of atoms = ${Ef} eV"
Final energy of atoms = -234470.447561917 eV
print "Stacking-fault energy = ${SFE} mJ/m^2"
Stacking-fault energy = 38.680224979451 mJ/m^2
Total wall time: 0:00:09
