LAMMPS (17 Nov 2015)
WARNING: OMP_NUM_THREADS environment is not set. (../comm.cpp:90)
  using 1 OpenMP thread(s) per MPI task
# Input file for Stack Fault Energy surface of Nickel: originally Richard Glaze, 2014
# Modified Dec 2019 for generalised stacking faults

# --------------------- INITIALIZAITION ---------------------
read_restart ../../init/restart.opt
  orthogonal box = (-0.305467 -0.308632 -0.539994) to (69.2831 70.0011 122.476)
  1 by 2 by 3 MPI processor grid
  53760 atoms

change_box all boundary p p s
variable sca equal 16
variable scb equal 28
variable scc equal 10
variable latparam1 equal 3.52
variable x_displace equal -0.3749383863047551
variable xdim equal ${latparam1}*sqrt(6)/2*${sca}
variable xdim equal 3.52*sqrt(6)/2*${sca}
variable xdim equal 3.52*sqrt(6)/2*16
variable ydim equal ${latparam1}*sqrt(2)/2*${scb}
variable ydim equal 3.52*sqrt(2)/2*${scb}
variable ydim equal 3.52*sqrt(2)/2*28
variable zmid equal ${latparam1}*sqrt(3)*${scc}
variable zmid equal 3.52*sqrt(3)*${scc}
variable zmid equal 3.52*sqrt(3)*10
variable ztop equal ${zmid}*2
variable ztop equal 60.9681884264245*2
# --------------------- ATOM DEFINITION ---------------------
# Not needed because restarted
# --------------------- FORCE FIELDS ---------------------
pair_style eam/alloy
pair_coeff * * ../../../NiAlCoCrMoTiWTa.set Al Co Ni
#pair_coeff * * Ni99.eam.alloy Ni Ni
# Also not needed because restarted
# --------------------- SETTINGS ---------------------
compute peratom all pe/atom
compute eatoms all reduce sum c_peratom
compute csym all centro/atom fcc
thermo 1
thermo_style custom step pe c_eatoms
#dump 1 all custom 1 dump.relax.1.* id type xs ys zs c_peratom c_csym
run 0
WARNING: No fixes defined, atoms won't move (../verlet.cpp:55)
Neighbor list info ...
  2 neighbor list requests
  update every 1 steps, delay 10 steps, check yes
  max neighbors/atom: 2000, page size: 100000
  master list distance cutoff = 8.56034
  ghost atom cutoff = 8.56034
  binsize = 4.28017 -> bins = 17 17 29
Memory usage per processor = 5.18855 Mbytes
Step PotEng eatoms 
      38   -234482.26   -234482.26 
Loop time of 3.57628e-06 on 6 procs for 0 steps with 53760 atoms

135.1% CPU use with 6 MPI tasks x 1 OpenMP threads

MPI task timing breakdown:
Section |  min time  |  avg time  |  max time  |%varavg| %total
---------------------------------------------------------------
Pair    | 0          | 0          | 0          |   0.0 |  0.00
Neigh   | 0          | 0          | 0          |   0.0 |  0.00
Comm    | 0          | 0          | 0          |   0.0 |  0.00
Output  | 0          | 0          | 0          |   0.0 |  0.00
Modify  | 0          | 0          | 0          |   0.0 |  0.00
Other   |            | 3.576e-06  |            |       |100.00

Nlocal:    8960 ave 9125 max 8849 min
Histogram: 2 1 0 0 1 0 1 0 0 1
Nghost:    12178 ave 14551 max 10965 min
Histogram: 4 0 0 0 0 0 0 0 0 2
Neighs:    976936 ave 1.02163e+06 max 917197 min
Histogram: 1 1 0 0 0 0 1 1 0 2
FullNghs:  0 ave 0 max 0 min
Histogram: 6 0 0 0 0 0 0 0 0 0

Total # of neighbors = 5861616
Ave neighs/atom = 109.033
Neighbor list builds = 0
Dangerous builds = 0
#this command creates a model of the script before the displacement and minimization occur
variable E equal "c_eatoms"
variable Eo equal $E
variable Eo equal -234482.259789123
#variable E equal "c_eatoms" computes the initial energy of the model before any sliding is done
#E is necessary to store the initial energy in Eo
#group bot region 1
#group top region 2
# Groups are preserved after restart
displace_atoms top move ${x_displace} 0.0 0.0 units box
displace_atoms top move -0.374938386304755 0.0 0.0 units box

#displace_atoms is the command neccessary to move atoms into the next stacking arrangement (ie: A -> B)

fix 1 all setforce 0 0 NULL
min_style cg
minimize 1e-10 1e-10 1000 1000
WARNING: Resetting reneighboring criteria during minimization (../min.cpp:168)
Neighbor list info ...
  2 neighbor list requests
  update every 1 steps, delay 0 steps, check yes
  max neighbors/atom: 2000, page size: 100000
  master list distance cutoff = 8.56034
  ghost atom cutoff = 8.56034
  binsize = 4.28017 -> bins = 17 17 29
Memory usage per processor = 7.68855 Mbytes
Step PotEng eatoms 
      38   -234404.37   -234404.37 
      39   -234423.48   -234423.48 
      40   -234434.88   -234434.88 
      41    -234440.5    -234440.5 
      42   -234444.52   -234444.52 
      43   -234446.68   -234446.68 
      44   -234447.44   -234447.44 
      45   -234448.07   -234448.07 
      46   -234448.26   -234448.26 
      47   -234448.45   -234448.45 
      48   -234448.57   -234448.57 
      49   -234448.71   -234448.71 
      50   -234448.78   -234448.78 
      51   -234448.87   -234448.87 
      52   -234448.92   -234448.92 
      53   -234448.96   -234448.96 
      54   -234448.98   -234448.98 
      55      -234449      -234449 
      56   -234449.03   -234449.03 
      57   -234449.05   -234449.05 
      58   -234449.06   -234449.06 
      59   -234449.08   -234449.08 
      60   -234449.08   -234449.08 
      61   -234449.09   -234449.09 
      62    -234449.1    -234449.1 
      63    -234449.1    -234449.1 
      64   -234449.11   -234449.11 
      65   -234449.12   -234449.12 
      66   -234449.12   -234449.12 
      67   -234449.12   -234449.12 
      68   -234449.12   -234449.12 
      69   -234449.13   -234449.13 
      70   -234449.13   -234449.13 
      71   -234449.13   -234449.13 
      72   -234449.13   -234449.13 
      73   -234449.14   -234449.14 
      74   -234449.14   -234449.14 
      75   -234449.14   -234449.14 
      76   -234449.14   -234449.14 
      77   -234449.14   -234449.14 
      78   -234449.15   -234449.15 
      79   -234449.15   -234449.15 
      80   -234449.15   -234449.15 
      81   -234449.15   -234449.15 
      82   -234449.15   -234449.15 
      83   -234449.15   -234449.15 
      84   -234449.15   -234449.15 
      85   -234449.16   -234449.16 
      86   -234449.16   -234449.16 
      87   -234449.16   -234449.16 
      88   -234449.16   -234449.16 
      89   -234449.16   -234449.16 
      90   -234449.16   -234449.16 
      91   -234449.16   -234449.16 
      92   -234449.16   -234449.16 
      93   -234449.16   -234449.16 
      94   -234449.16   -234449.16 
      95   -234449.16   -234449.16 
      96   -234449.17   -234449.17 
      97   -234449.17   -234449.17 
      98   -234449.17   -234449.17 
      99   -234449.17   -234449.17 
     100   -234449.17   -234449.17 
     101   -234449.17   -234449.17 
     102   -234449.17   -234449.17 
     103   -234449.17   -234449.17 
     104   -234449.17   -234449.17 
     105   -234449.17   -234449.17 
     106   -234449.17   -234449.17 
     107   -234449.17   -234449.17 
     108   -234449.17   -234449.17 
     109   -234449.17   -234449.17 
     110   -234449.17   -234449.17 
     111   -234449.17   -234449.17 
     112   -234449.17   -234449.17 
     113   -234449.17   -234449.17 
     114   -234449.17   -234449.17 
     115   -234449.17   -234449.17 
     116   -234449.17   -234449.17 
     117   -234449.17   -234449.17 
     118   -234449.17   -234449.17 
     119   -234449.17   -234449.17 
     120   -234449.17   -234449.17 
     121   -234449.17   -234449.17 
     122   -234449.17   -234449.17 
     123   -234449.17   -234449.17 
Loop time of 9.86235 on 6 procs for 85 steps with 53760 atoms

99.9% CPU use with 6 MPI tasks x 1 OpenMP threads

Minimization stats:
  Stopping criterion = energy tolerance
  Energy initial, next-to-last, final = 
        -234404.371431     -234449.170663     -234449.170686
  Force two-norm initial, final = 20.6426 0.0149248
  Force max component initial, final = 1.57974 0.000681152
  Final line search alpha, max atom move = 1 0.000681152
  Iterations, force evaluations = 85 165

MPI task timing breakdown:
Section |  min time  |  avg time  |  max time  |%varavg| %total
---------------------------------------------------------------
Pair    | 7.2967     | 8.2071     | 9.1103     |  22.9 | 83.22
Neigh   | 0          | 0          | 0          |   0.0 |  0.00
Comm    | 0.51618    | 1.4226     | 2.3442     |  55.3 | 14.42
Output  | 0.032922   | 0.0333     | 0.03506    |   0.4 |  0.34
Modify  | 0.010727   | 0.012906   | 0.015131   |   1.3 |  0.13
Other   |            | 0.1864     |            |       |  1.89

Nlocal:    8960 ave 9125 max 8849 min
Histogram: 2 1 0 0 1 0 1 0 0 1
Nghost:    12262 ave 14635 max 11009 min
Histogram: 4 0 0 0 0 0 0 0 0 2
Neighs:    977149 ave 1.02216e+06 max 917293 min
Histogram: 1 1 0 0 0 0 1 1 0 2
FullNghs:  0 ave 0 max 0 min
Histogram: 6 0 0 0 0 0 0 0 0 0

Total # of neighbors = 5862892
Ave neighs/atom = 109.057
Neighbor list builds = 0
Dangerous builds = 0
variable Ef equal "c_eatoms"
variable Cf equal 1.60217657e-16
variable A equal (cella*cellb)*1e-20
variable SFE equal ((${Ef}-${Eo})*${Cf})/${A}
variable SFE equal ((-234449.170685541-${Eo})*${Cf})/${A}
variable SFE equal ((-234449.170685541--234482.259789123)*${Cf})/${A}
variable SFE equal ((-234449.170685541--234482.259789123)*1.60217657e-16)/${A}
variable SFE equal ((-234449.170685541--234482.259789123)*1.60217657e-16)/4.89275170426208e-17

#variable Ef equal "c_eatoms" computes the final energy of the system after sliding is done
#variable A is the area of the Stacking fault plane
#variable Cf is the conversion factor of electro volts to millijoules
#variable SFE is the stacking-fault energy of the system
####################################
# SIMULATION DONE
print "All done"
All done
print "Initial energy of atoms = ${Eo} eV"
Initial energy of atoms = -234482.259789123 eV
print "Final energy of atoms = ${Ef} eV"
Final energy of atoms = -234449.170685541 eV
print "Stacking-fault energy = ${SFE} mJ/m^2"
Stacking-fault energy = 108.353314629055 mJ/m^2
Total wall time: 0:00:10
