LAMMPS (17 Nov 2015)
WARNING: OMP_NUM_THREADS environment is not set. (../comm.cpp:90)
  using 1 OpenMP thread(s) per MPI task
# Input file for Stack Fault Energy surface of Nickel: originally Richard Glaze, 2014
# Modified Dec 2019 for generalised stacking faults

# --------------------- INITIALIZAITION ---------------------
clear
WARNING: OMP_NUM_THREADS environment is not set. (../comm.cpp:90)
  using 1 OpenMP thread(s) per MPI task
units metal
dimension 3
boundary p p p
atom_style atomic
variable sca equal 16
variable scb equal 28
variable scc equal 10
variable latparam1 equal 3.52
variable x_displace equal -1*(${latparam1}/sqrt(6))
variable x_displace equal -1*(3.52/sqrt(6))
variable xdim equal ${latparam1}*sqrt(6)/2*${sca}
variable xdim equal 3.52*sqrt(6)/2*${sca}
variable xdim equal 3.52*sqrt(6)/2*16
variable ydim equal ${latparam1}*sqrt(2)/2*${scb}
variable ydim equal 3.52*sqrt(2)/2*${scb}
variable ydim equal 3.52*sqrt(2)/2*28
variable zmid equal ${latparam1}*sqrt(3)*${scc}
variable zmid equal 3.52*sqrt(3)*${scc}
variable zmid equal 3.52*sqrt(3)*10
variable ztop equal ${zmid}*2
variable ztop equal 60.9681884264245*2
variable app_press equal 1.0
# --------------------- ATOM DEFINITION ---------------------
region 1 block -.001 ${xdim} -.001 ${ydim} -.001 ${zmid} units box
region 1 block -.001 68.9776311567743 -.001 ${ydim} -.001 ${zmid} units box
region 1 block -.001 68.9776311567743 -.001 69.6924443537461 -.001 ${zmid} units box
region 1 block -.001 68.9776311567743 -.001 69.6924443537461 -.001 60.9681884264245 units box
region 2 block -.001 ${xdim} -.001 ${ydim} ${zmid} ${ztop} units box
region 2 block -.001 68.9776311567743 -.001 ${ydim} ${zmid} ${ztop} units box
region 2 block -.001 68.9776311567743 -.001 69.6924443537461 ${zmid} ${ztop} units box
region 2 block -.001 68.9776311567743 -.001 69.6924443537461 60.9681884264245 ${ztop} units box
region 2 block -.001 68.9776311567743 -.001 69.6924443537461 60.9681884264245 121.936376852849 units box
region whole block 0 ${xdim} 0 ${ydim} 0 ${ztop} units box
region whole block 0 68.9776311567743 0 ${ydim} 0 ${ztop} units box
region whole block 0 68.9776311567743 0 69.6924443537461 0 ${ztop} units box
region whole block 0 68.9776311567743 0 69.6924443537461 0 121.936376852849 units box
read_data alloyified_elemental.data
  orthogonal box = (0 0 0) to (68.9776 69.6924 121.936)
  1 by 2 by 3 MPI processor grid
  reading atoms ...
  53760 atoms
  reading velocities ...
  53760 velocities
# --------------------- FORCE FIELDS ---------------------
pair_style eam/alloy
pair_coeff * * ../../NiAlCoCrMoTiWTa.set Al Co Ni
#pair_coeff * * Ni99.eam.alloy Ni Ni
# --------------------- SETTINGS ---------------------
compute peratom all pe/atom
compute eatoms all reduce sum c_peratom
compute csym all centro/atom fcc
thermo 1
thermo_style custom step pe c_eatoms
run 0
WARNING: No fixes defined, atoms won't move (../verlet.cpp:55)
Neighbor list info ...
  2 neighbor list requests
  update every 1 steps, delay 10 steps, check yes
  max neighbors/atom: 2000, page size: 100000
  master list distance cutoff = 8.56034
  ghost atom cutoff = 8.56034
  binsize = 4.28017 -> bins = 17 17 29
Memory usage per processor = 5.22755 Mbytes
Step PotEng eatoms 
       0    -235333.4    -235333.4 
Loop time of 3.09944e-06 on 6 procs for 0 steps with 53760 atoms

166.7% CPU use with 6 MPI tasks x 1 OpenMP threads

MPI task timing breakdown:
Section |  min time  |  avg time  |  max time  |%varavg| %total
---------------------------------------------------------------
Pair    | 0          | 0          | 0          |   0.0 |  0.00
Neigh   | 0          | 0          | 0          |   0.0 |  0.00
Comm    | 0          | 0          | 0          |   0.0 |  0.00
Output  | 0          | 0          | 0          |   0.0 |  0.00
Modify  | 0          | 0          | 0          |   0.0 |  0.00
Other   |            | 3.099e-06  |            |       |100.00

Nlocal:    8960 ave 8965 max 8957 min
Histogram: 1 1 2 0 0 0 1 0 0 1
Nghost:    14617 ave 14633 max 14605 min
Histogram: 1 1 2 0 0 0 0 0 0 2
Neighs:    1.00352e+06 ave 1.0123e+06 max 994553 min
Histogram: 2 0 0 0 0 2 0 0 0 2
FullNghs:  0 ave 0 max 0 min
Histogram: 6 0 0 0 0 0 0 0 0 0

Total # of neighbors = 6021120
Ave neighs/atom = 112
Neighbor list builds = 0
Dangerous builds = 0
#this command creates a model of the script before the displacement and minimization occur
variable E equal "c_eatoms"
variable Eo equal $E
variable Eo equal -235333.397347641
#variable E equal "c_eatoms" computes the initial energy of the model before any sliding is done
#E is necessary to store the initial energy in Eo
group bot region 1
27776 atoms in group bot
group top region 2
25984 atoms in group top

fix 1 all box/relax iso ${app_press} vmax 0.001
fix 1 all box/relax iso 1 vmax 0.001
min_style cg
minimize 1e-10 1e-10 1000 1000
WARNING: Resetting reneighboring criteria during minimization (../min.cpp:168)
Neighbor list info ...
  2 neighbor list requests
  update every 1 steps, delay 0 steps, check yes
  max neighbors/atom: 2000, page size: 100000
  master list distance cutoff = 8.56034
  ghost atom cutoff = 8.56034
  binsize = 4.28017 -> bins = 17 17 29
Memory usage per processor = 7.72755 Mbytes
Step PotEng eatoms 
       0    -235333.4    -235333.4 
       1   -235381.63   -235381.63 
       2   -235423.74   -235423.74 
       3   -235459.79   -235459.79 
       4   -235489.81   -235489.81 
       5   -235513.88   -235513.88 
       6   -235532.02   -235532.02 
       7   -235544.36   -235544.36 
       8   -235550.98   -235550.98 
       9   -235552.26   -235552.26 
      10   -235554.66   -235554.66 
      11   -235787.06   -235787.06 
      12   -235787.32   -235787.32 
      13   -235787.39   -235787.39 
      14   -235791.09   -235791.09 
      15    -235791.1    -235791.1 
      16    -235791.1    -235791.1 
      17    -235791.1    -235791.1 
      18   -235804.28   -235804.28 
      19   -235812.19   -235812.19 
      20   -235812.19   -235812.19 
      21   -235826.62   -235826.62 
      22    -235831.7    -235831.7 
      23   -235832.79   -235832.79 
      24   -235832.81   -235832.81 
      25   -235833.03   -235833.03 
      26   -235833.03   -235833.03 
      27   -235835.46   -235835.46 
      28   -235837.51   -235837.51 
      29   -235837.51   -235837.51 
      30   -235839.59   -235839.59 
      31   -235839.64   -235839.64 
      32   -235839.64   -235839.64 
      33   -235840.58   -235840.58 
      34   -235841.01   -235841.01 
      35   -235841.01   -235841.01 
      36   -235841.89   -235841.89 
      37   -235841.91   -235841.91 
      38   -235841.91   -235841.91 
Loop time of 3.74139 on 6 procs for 38 steps with 53760 atoms

99.8% CPU use with 6 MPI tasks x 1 OpenMP threads

Minimization stats:
  Stopping criterion = energy tolerance
  Energy initial, next-to-last, final = 
        -235333.397349     -235841.902845     -235841.902856
  Force two-norm initial, final = 51349.3 4.45498
  Force max component initial, final = 51349.2 1.78203
  Final line search alpha, max atom move = 0.000110853 0.000197544
  Iterations, force evaluations = 38 63

MPI task timing breakdown:
Section |  min time  |  avg time  |  max time  |%varavg| %total
---------------------------------------------------------------
Pair    | 2.8875     | 3.0815     | 3.2771     |   8.5 | 82.36
Neigh   | 0.027385   | 0.031617   | 0.038085   |   2.6 |  0.85
Comm    | 0.26457    | 0.47034    | 0.66933    |  22.7 | 12.57
Output  | 0.015947   | 0.016172   | 0.016947   |   0.3 |  0.43
Modify  | 0          | 0          | 0          |   0.0 |  0.00
Other   |            | 0.1417     |            |       |  3.79

Nlocal:    8960 ave 9013 max 8918 min
Histogram: 1 1 0 1 0 2 0 0 0 1
Nghost:    14617 ave 14657 max 14557 min
Histogram: 1 0 0 0 1 1 1 0 0 2
Neighs:    1.00352e+06 ave 1.01562e+06 max 992945 min
Histogram: 1 0 1 1 1 0 0 1 0 1
FullNghs:  0 ave 0 max 0 min
Histogram: 6 0 0 0 0 0 0 0 0 0

Total # of neighbors = 6021120
Ave neighs/atom = 112
Neighbor list builds = 1
Dangerous builds = 0
variable Ef equal "c_eatoms"
variable Cf equal 1.60217657e-16
variable A equal (cella*cellb)*1e-20
variable xdisptot equal cella/${sca}
variable xdisptot equal cella/16
variable SFE equal ((${Ef}-${Eo})*${Cf})/${A}
variable SFE equal ((-235841.912663153-${Eo})*${Cf})/${A}
variable SFE equal ((-235841.912663153--235333.397347641)*${Cf})/${A}
variable SFE equal ((-235841.912663153--235333.397347641)*1.60217657e-16)/${A}
variable SFE equal ((-235841.912663153--235333.397347641)*1.60217657e-16)/4.89275170426208e-17

####################################
# SIMULATION DONE
print "All done"
All done
print "Total lattice in x dir = ${xdisptot} A"
Total lattice in x dir = 4.34928528113516 A
print "Initial energy of atoms = ${Eo} eV"
Initial energy of atoms = -235333.397347641 eV
print "Final energy of atoms = ${Ef} eV"
Final energy of atoms = -235841.912663153 eV
print "Stacking-fault energy = ${SFE} mJ/m^2"
Stacking-fault energy = -1665.18019561417 mJ/m^2

write_restart restart.opt
Neighbor list info ...
  2 neighbor list requests
  update every 1 steps, delay 10 steps, check yes
  max neighbors/atom: 2000, page size: 100000
  master list distance cutoff = 8.56034
  ghost atom cutoff = 8.56034
  binsize = 4.28017 -> bins = 17 17 29
Total wall time: 0:00:04
