LAMMPS (17 Nov 2015)
WARNING: OMP_NUM_THREADS environment is not set. (../comm.cpp:90)
  using 1 OpenMP thread(s) per MPI task
# Input file for Stack Fault Energy surface of Nickel: originally Richard Glaze, 2014
# Modified Dec 2019 for generalised stacking faults

# --------------------- INITIALIZAITION ---------------------
read_restart ../../init/restart.opt
  orthogonal box = (-0.305467 -0.308632 -0.539994) to (69.2831 70.0011 122.476)
  1 by 2 by 3 MPI processor grid
  53760 atoms

change_box all boundary p p s
variable sca equal 16
variable scb equal 28
variable scc equal 10
variable latparam1 equal 3.52
variable x_displace equal -2.024667286045678
variable xdim equal ${latparam1}*sqrt(6)/2*${sca}
variable xdim equal 3.52*sqrt(6)/2*${sca}
variable xdim equal 3.52*sqrt(6)/2*16
variable ydim equal ${latparam1}*sqrt(2)/2*${scb}
variable ydim equal 3.52*sqrt(2)/2*${scb}
variable ydim equal 3.52*sqrt(2)/2*28
variable zmid equal ${latparam1}*sqrt(3)*${scc}
variable zmid equal 3.52*sqrt(3)*${scc}
variable zmid equal 3.52*sqrt(3)*10
variable ztop equal ${zmid}*2
variable ztop equal 60.9681884264245*2
# --------------------- ATOM DEFINITION ---------------------
# Not needed because restarted
# --------------------- FORCE FIELDS ---------------------
pair_style eam/alloy
pair_coeff * * ../../../NiAlCoCrMoTiWTa.set Al Co Ni
#pair_coeff * * Ni99.eam.alloy Ni Ni
# Also not needed because restarted
# --------------------- SETTINGS ---------------------
compute peratom all pe/atom
compute eatoms all reduce sum c_peratom
compute csym all centro/atom fcc
thermo 1
thermo_style custom step pe c_eatoms
#dump 1 all custom 1 dump.relax.1.* id type xs ys zs c_peratom c_csym
run 0
WARNING: No fixes defined, atoms won't move (../verlet.cpp:55)
Neighbor list info ...
  2 neighbor list requests
  update every 1 steps, delay 10 steps, check yes
  max neighbors/atom: 2000, page size: 100000
  master list distance cutoff = 8.56034
  ghost atom cutoff = 8.56034
  binsize = 4.28017 -> bins = 17 17 29
Memory usage per processor = 5.18855 Mbytes
Step PotEng eatoms 
      38   -234482.26   -234482.26 
Loop time of 3.3776e-06 on 6 procs for 0 steps with 53760 atoms

148.0% CPU use with 6 MPI tasks x 1 OpenMP threads

MPI task timing breakdown:
Section |  min time  |  avg time  |  max time  |%varavg| %total
---------------------------------------------------------------
Pair    | 0          | 0          | 0          |   0.0 |  0.00
Neigh   | 0          | 0          | 0          |   0.0 |  0.00
Comm    | 0          | 0          | 0          |   0.0 |  0.00
Output  | 0          | 0          | 0          |   0.0 |  0.00
Modify  | 0          | 0          | 0          |   0.0 |  0.00
Other   |            | 3.378e-06  |            |       |100.00

Nlocal:    8960 ave 9125 max 8849 min
Histogram: 2 1 0 0 1 0 1 0 0 1
Nghost:    12178 ave 14551 max 10965 min
Histogram: 4 0 0 0 0 0 0 0 0 2
Neighs:    976936 ave 1.02163e+06 max 917197 min
Histogram: 1 1 0 0 0 0 1 1 0 2
FullNghs:  0 ave 0 max 0 min
Histogram: 6 0 0 0 0 0 0 0 0 0

Total # of neighbors = 5861616
Ave neighs/atom = 109.033
Neighbor list builds = 0
Dangerous builds = 0
#this command creates a model of the script before the displacement and minimization occur
variable E equal "c_eatoms"
variable Eo equal $E
variable Eo equal -234482.259789123
#variable E equal "c_eatoms" computes the initial energy of the model before any sliding is done
#E is necessary to store the initial energy in Eo
#group bot region 1
#group top region 2
# Groups are preserved after restart
displace_atoms top move ${x_displace} 0.0 0.0 units box
displace_atoms top move -2.02466728604568 0.0 0.0 units box

#displace_atoms is the command neccessary to move atoms into the next stacking arrangement (ie: A -> B)

fix 1 all setforce 0 0 NULL
min_style cg
minimize 1e-10 1e-10 1000 1000
WARNING: Resetting reneighboring criteria during minimization (../min.cpp:168)
Neighbor list info ...
  2 neighbor list requests
  update every 1 steps, delay 0 steps, check yes
  max neighbors/atom: 2000, page size: 100000
  master list distance cutoff = 8.56034
  ghost atom cutoff = 8.56034
  binsize = 4.28017 -> bins = 17 17 29
Memory usage per processor = 7.68855 Mbytes
Step PotEng eatoms 
      38   -234094.66   -234094.66 
      39   -234187.95   -234187.95 
      40   -234213.98   -234213.98 
      41   -234226.85   -234226.85 
      42   -234234.29   -234234.29 
      43   -234240.53   -234240.53 
      44   -234241.87   -234241.87 
      45   -234244.58   -234244.58 
      46    -234245.2    -234245.2 
      47   -234245.79   -234245.79 
      48   -234246.67   -234246.67 
      49   -234247.23   -234247.23 
      50   -234247.57   -234247.57 
      51   -234247.76   -234247.76 
      52   -234247.97   -234247.97 
      53   -234248.19   -234248.19 
      54   -234248.39   -234248.39 
      55   -234248.53   -234248.53 
      56   -234248.61   -234248.61 
      57    -234248.7    -234248.7 
      58   -234248.78   -234248.78 
      59   -234248.88   -234248.88 
      60   -234248.96   -234248.96 
      61   -234249.01   -234249.01 
      62   -234249.06   -234249.06 
      63   -234249.14   -234249.14 
      64    -234249.2    -234249.2 
      65   -234249.26   -234249.26 
      66    -234249.3    -234249.3 
      67   -234249.33   -234249.33 
      68   -234249.37   -234249.37 
      69   -234249.42   -234249.42 
      70   -234249.46   -234249.46 
      71   -234249.49   -234249.49 
      72   -234249.51   -234249.51 
      73   -234249.54   -234249.54 
      74   -234249.57   -234249.57 
      75   -234249.62   -234249.62 
      76   -234249.66   -234249.66 
      77   -234249.71   -234249.71 
      78   -234249.77   -234249.77 
      79   -234249.85   -234249.85 
      80   -234249.93   -234249.93 
      81   -234249.99   -234249.99 
      82   -234250.04   -234250.04 
      83   -234250.08   -234250.08 
      84   -234250.13   -234250.13 
      85   -234250.17   -234250.17 
      86    -234250.2    -234250.2 
      87   -234250.22   -234250.22 
      88   -234250.24   -234250.24 
      89   -234250.26   -234250.26 
      90   -234250.27   -234250.27 
      91   -234250.29   -234250.29 
      92    -234250.3    -234250.3 
      93   -234250.31   -234250.31 
      94   -234250.32   -234250.32 
      95   -234250.33   -234250.33 
      96   -234250.33   -234250.33 
      97   -234250.34   -234250.34 
      98   -234250.35   -234250.35 
      99   -234250.35   -234250.35 
     100   -234250.36   -234250.36 
     101   -234250.36   -234250.36 
     102   -234250.37   -234250.37 
     103   -234250.37   -234250.37 
     104   -234250.38   -234250.38 
     105   -234250.38   -234250.38 
     106   -234250.38   -234250.38 
     107   -234250.38   -234250.38 
     108   -234250.39   -234250.39 
     109   -234250.39   -234250.39 
     110   -234250.39   -234250.39 
     111   -234250.39   -234250.39 
     112    -234250.4    -234250.4 
     113    -234250.4    -234250.4 
     114    -234250.4    -234250.4 
     115    -234250.4    -234250.4 
     116    -234250.4    -234250.4 
     117    -234250.4    -234250.4 
     118    -234250.4    -234250.4 
     119    -234250.4    -234250.4 
     120    -234250.4    -234250.4 
     121    -234250.4    -234250.4 
     122    -234250.4    -234250.4 
     123    -234250.4    -234250.4 
     124   -234250.41   -234250.41 
     125   -234250.41   -234250.41 
     126   -234250.41   -234250.41 
     127   -234250.41   -234250.41 
     128   -234250.41   -234250.41 
     129   -234250.41   -234250.41 
     130   -234250.41   -234250.41 
     131   -234250.41   -234250.41 
     132   -234250.41   -234250.41 
     133   -234250.41   -234250.41 
     134   -234250.41   -234250.41 
     135   -234250.41   -234250.41 
     136   -234250.41   -234250.41 
     137   -234250.41   -234250.41 
     138   -234250.41   -234250.41 
     139   -234250.41   -234250.41 
     140   -234250.41   -234250.41 
     141   -234250.41   -234250.41 
     142   -234250.41   -234250.41 
     143   -234250.41   -234250.41 
     144   -234250.41   -234250.41 
     145   -234250.41   -234250.41 
     146   -234250.41   -234250.41 
     147   -234250.41   -234250.41 
     148   -234250.41   -234250.41 
     149   -234250.41   -234250.41 
     150   -234250.41   -234250.41 
     151   -234250.41   -234250.41 
     152   -234250.41   -234250.41 
     153   -234250.41   -234250.41 
     154   -234250.41   -234250.41 
     155   -234250.41   -234250.41 
     156   -234250.41   -234250.41 
     157   -234250.41   -234250.41 
     158   -234250.41   -234250.41 
     159   -234250.41   -234250.41 
     160   -234250.41   -234250.41 
     161   -234250.41   -234250.41 
     162   -234250.41   -234250.41 
     163   -234250.41   -234250.41 
     164   -234250.41   -234250.41 
Loop time of 14.0779 on 6 procs for 126 steps with 53760 atoms

100.0% CPU use with 6 MPI tasks x 1 OpenMP threads

Minimization stats:
  Stopping criterion = energy tolerance
  Energy initial, next-to-last, final = 
         -234094.66393     -234250.408799      -234250.40882
  Force two-norm initial, final = 65.6251 0.0187294
  Force max component initial, final = 2.65218 0.00828928
  Final line search alpha, max atom move = 1 0.00828928
  Iterations, force evaluations = 126 246

MPI task timing breakdown:
Section |  min time  |  avg time  |  max time  |%varavg| %total
---------------------------------------------------------------
Pair    | 10.325     | 11.609     | 13.587     |  37.4 | 82.46
Neigh   | 0          | 0          | 0          |   0.0 |  0.00
Comm    | 0.14742    | 2.1398     | 3.4388     |  87.7 | 15.20
Output  | 0.046903   | 0.047408   | 0.049802   |   0.5 |  0.34
Modify  | 0.015814   | 0.018303   | 0.021737   |   1.6 |  0.13
Other   |            | 0.2633     |            |       |  1.87

Nlocal:    8960 ave 9125 max 8849 min
Histogram: 2 1 0 0 1 0 1 0 0 1
Nghost:    12243.2 ave 14616 max 11009 min
Histogram: 4 0 0 0 0 0 0 0 0 2
Neighs:    979186 ave 1.02771e+06 max 917797 min
Histogram: 1 1 0 0 0 0 2 0 0 2
FullNghs:  0 ave 0 max 0 min
Histogram: 6 0 0 0 0 0 0 0 0 0

Total # of neighbors = 5875116
Ave neighs/atom = 109.284
Neighbor list builds = 0
Dangerous builds = 0
variable Ef equal "c_eatoms"
variable Cf equal 1.60217657e-16
variable A equal (cella*cellb)*1e-20
variable SFE equal ((${Ef}-${Eo})*${Cf})/${A}
variable SFE equal ((-234250.40881981-${Eo})*${Cf})/${A}
variable SFE equal ((-234250.40881981--234482.259789123)*${Cf})/${A}
variable SFE equal ((-234250.40881981--234482.259789123)*1.60217657e-16)/${A}
variable SFE equal ((-234250.40881981--234482.259789123)*1.60217657e-16)/4.89275170426208e-17

#variable Ef equal "c_eatoms" computes the final energy of the system after sliding is done
#variable A is the area of the Stacking fault plane
#variable Cf is the conversion factor of electro volts to millijoules
#variable SFE is the stacking-fault energy of the system
####################################
# SIMULATION DONE
print "All done"
All done
print "Initial energy of atoms = ${Eo} eV"
Initial energy of atoms = -234482.259789123 eV
print "Final energy of atoms = ${Ef} eV"
Final energy of atoms = -234250.40881981 eV
print "Stacking-fault energy = ${SFE} mJ/m^2"
Stacking-fault energy = 759.217334575754 mJ/m^2
Total wall time: 0:00:14
