LAMMPS (17 Nov 2015)
WARNING: OMP_NUM_THREADS environment is not set. (../comm.cpp:90)
  using 1 OpenMP thread(s) per MPI task
# Input file for Stack Fault Energy surface of Nickel: originally Richard Glaze, 2014
# Modified Dec 2019 for generalised stacking faults

# --------------------- INITIALIZAITION ---------------------
read_restart ../../init/restart.opt
  orthogonal box = (0.00367712 0.00371523 0.0065003) to (68.974 69.6887 121.93)
  1 by 2 by 3 MPI processor grid
  53760 atoms

change_box all boundary p p s
variable sca equal 16
variable scb equal 28
variable scc equal 10
variable latparam1 equal 3.52
variable x_displace equal -1.3377855435535206
variable xdim equal ${latparam1}*sqrt(6)/2*${sca}
variable xdim equal 3.52*sqrt(6)/2*${sca}
variable xdim equal 3.52*sqrt(6)/2*16
variable ydim equal ${latparam1}*sqrt(2)/2*${scb}
variable ydim equal 3.52*sqrt(2)/2*${scb}
variable ydim equal 3.52*sqrt(2)/2*28
variable zmid equal ${latparam1}*sqrt(3)*${scc}
variable zmid equal 3.52*sqrt(3)*${scc}
variable zmid equal 3.52*sqrt(3)*10
variable ztop equal ${zmid}*2
variable ztop equal 60.9681884264245*2
# --------------------- ATOM DEFINITION ---------------------
# Not needed because restarted
# --------------------- FORCE FIELDS ---------------------
pair_style eam/alloy
pair_coeff * * ../../../NiAlCoCrMoTiWTa.set Ni Ni
#pair_coeff * * Ni99.eam.alloy Ni Ni
# Also not needed because restarted
# --------------------- SETTINGS ---------------------
compute peratom all pe/atom
compute eatoms all reduce sum c_peratom
compute csym all centro/atom fcc
thermo 1
thermo_style custom step pe c_eatoms
#dump 1 all custom 1 dump.relax.1.* id type xs ys zs c_peratom c_csym
run 0
WARNING: No fixes defined, atoms won't move (../verlet.cpp:55)
Neighbor list info ...
  2 neighbor list requests
  update every 1 steps, delay 10 steps, check yes
  max neighbors/atom: 2000, page size: 100000
  master list distance cutoff = 8.56034
  ghost atom cutoff = 8.56034
  binsize = 4.28017 -> bins = 17 17 29
Memory usage per processor = 5.21199 Mbytes
Step PotEng eatoms 
       2   -238159.28   -238159.28 
Loop time of 3.33786e-06 on 6 procs for 0 steps with 53760 atoms

169.8% CPU use with 6 MPI tasks x 1 OpenMP threads

MPI task timing breakdown:
Section |  min time  |  avg time  |  max time  |%varavg| %total
---------------------------------------------------------------
Pair    | 0          | 0          | 0          |   0.0 |  0.00
Neigh   | 0          | 0          | 0          |   0.0 |  0.00
Comm    | 0          | 0          | 0          |   0.0 |  0.00
Output  | 0          | 0          | 0          |   0.0 |  0.00
Modify  | 0          | 0          | 0          |   0.0 |  0.00
Other   |            | 3.338e-06  |            |       |100.00

Nlocal:    8960 ave 8960 max 8960 min
Histogram: 6 0 0 0 0 0 0 0 0 0
Nghost:    11638.3 ave 13811 max 10552 min
Histogram: 4 0 0 0 0 0 0 0 0 2
Neighs:    977984 ave 1.00355e+06 max 941536 min
Histogram: 2 0 0 0 0 0 0 2 0 2
FullNghs:  0 ave 0 max 0 min
Histogram: 6 0 0 0 0 0 0 0 0 0

Total # of neighbors = 5867904
Ave neighs/atom = 109.15
Neighbor list builds = 0
Dangerous builds = 0
#this command creates a model of the script before the displacement and minimization occur
variable E equal "c_eatoms"
variable Eo equal $E
variable Eo equal -238159.276198223
#variable E equal "c_eatoms" computes the initial energy of the model before any sliding is done
#E is necessary to store the initial energy in Eo
#group bot region 1
#group top region 2
# Groups are preserved after restart
displace_atoms top move ${x_displace} 0.0 0.0 units box
displace_atoms top move -1.33778554355352 0.0 0.0 units box

#displace_atoms is the command neccessary to move atoms into the next stacking arrangement (ie: A -> B)

fix 1 all setforce 0 0 NULL
min_style cg
minimize 1e-10 1e-10 1000 1000
WARNING: Resetting reneighboring criteria during minimization (../min.cpp:168)
Neighbor list info ...
  2 neighbor list requests
  update every 1 steps, delay 0 steps, check yes
  max neighbors/atom: 2000, page size: 100000
  master list distance cutoff = 8.56034
  ghost atom cutoff = 8.56034
  binsize = 4.28017 -> bins = 17 17 29
Memory usage per processor = 7.71199 Mbytes
Step PotEng eatoms 
       2   -238124.26   -238124.26 
       3      -238125      -238125 
       4   -238125.32   -238125.32 
       5   -238125.49   -238125.49 
       6    -238125.6    -238125.6 
       7   -238125.68   -238125.68 
       8   -238125.73   -238125.73 
       9   -238125.77   -238125.77 
      10   -238125.81   -238125.81 
      11   -238125.84   -238125.84 
      12   -238125.86   -238125.86 
      13   -238125.88   -238125.88 
      14   -238125.89   -238125.89 
      15    -238125.9    -238125.9 
      16   -238125.91   -238125.91 
      17   -238125.92   -238125.92 
      18   -238125.93   -238125.93 
      19   -238125.94   -238125.94 
      20   -238125.95   -238125.95 
      21   -238125.96   -238125.96 
      22   -238125.96   -238125.96 
      23   -238125.97   -238125.97 
      24   -238125.97   -238125.97 
      25   -238125.98   -238125.98 
      26   -238125.98   -238125.98 
      27   -238125.99   -238125.99 
      28   -238125.99   -238125.99 
      29   -238125.99   -238125.99 
      30      -238126      -238126 
      31      -238126      -238126 
      32   -238126.02   -238126.02 
      33   -238126.03   -238126.03 
      34   -238126.05   -238126.05 
      35   -238126.06   -238126.06 
      36   -238126.07   -238126.07 
      37   -238126.07   -238126.07 
      38   -238126.07   -238126.07 
      39   -238126.08   -238126.08 
      40   -238126.08   -238126.08 
      41   -238126.08   -238126.08 
      42   -238126.08   -238126.08 
      43   -238126.08   -238126.08 
      44   -238126.08   -238126.08 
      45   -238126.08   -238126.08 
      46   -238126.08   -238126.08 
      47   -238126.08   -238126.08 
      48   -238126.08   -238126.08 
      49   -238126.08   -238126.08 
      50   -238126.08   -238126.08 
      51   -238126.08   -238126.08 
      52   -238126.08   -238126.08 
      53   -238126.08   -238126.08 
      54   -238126.08   -238126.08 
      55   -238126.08   -238126.08 
      56   -238126.08   -238126.08 
      57   -238126.08   -238126.08 
      58   -238126.08   -238126.08 
      59   -238126.08   -238126.08 
      60   -238126.08   -238126.08 
      61   -238126.08   -238126.08 
      62   -238126.08   -238126.08 
Loop time of 6.14013 on 6 procs for 60 steps with 53760 atoms

100.0% CPU use with 6 MPI tasks x 1 OpenMP threads

Minimization stats:
  Stopping criterion = energy tolerance
  Energy initial, next-to-last, final = 
        -238124.260933     -238126.083728     -238126.083741
  Force two-norm initial, final = 4.18349 0.0092367
  Force max component initial, final = 0.0613517 0.000131231
  Final line search alpha, max atom move = 1 0.000131231
  Iterations, force evaluations = 60 120

MPI task timing breakdown:
Section |  min time  |  avg time  |  max time  |%varavg| %total
---------------------------------------------------------------
Pair    | 4.5095     | 5.009      | 5.8771     |  25.0 | 81.58
Neigh   | 0          | 0          | 0          |   0.0 |  0.00
Comm    | 0.086855   | 0.96329    | 1.4699     |  57.8 | 15.69
Output  | 0.022779   | 0.023029   | 0.024215   |   0.3 |  0.38
Modify  | 0.0081961  | 0.0098013  | 0.011289   |   1.1 |  0.16
Other   |            | 0.135      |            |       |  2.20

Nlocal:    8960 ave 8960 max 8960 min
Histogram: 6 0 0 0 0 0 0 0 0 0
Nghost:    11722.3 ave 13895 max 10552 min
Histogram: 4 0 0 0 0 0 0 0 0 2
Neighs:    980373 ave 1.00989e+06 max 942368 min
Histogram: 2 0 0 0 0 0 2 0 0 2
FullNghs:  0 ave 0 max 0 min
Histogram: 6 0 0 0 0 0 0 0 0 0

Total # of neighbors = 5882240
Ave neighs/atom = 109.417
Neighbor list builds = 0
Dangerous builds = 0
variable Ef equal "c_eatoms"
variable Cf equal 1.60217657e-16
variable A equal (cella*cellb)*1e-20
variable SFE equal ((${Ef}-${Eo})*${Cf})/${A}
variable SFE equal ((-238126.083741044-${Eo})*${Cf})/${A}
variable SFE equal ((-238126.083741044--238159.276198223)*${Cf})/${A}
variable SFE equal ((-238126.083741044--238159.276198223)*1.60217657e-16)/${A}
variable SFE equal ((-238126.083741044--238159.276198223)*1.60217657e-16)/4.80619470511564e-17

#variable Ef equal "c_eatoms" computes the final energy of the system after sliding is done
#variable A is the area of the Stacking fault plane
#variable Cf is the conversion factor of electro volts to millijoules
#variable SFE is the stacking-fault energy of the system
####################################
# SIMULATION DONE
print "All done"
All done
print "Initial energy of atoms = ${Eo} eV"
Initial energy of atoms = -238159.276198223 eV
print "Final energy of atoms = ${Ef} eV"
Final energy of atoms = -238126.083741044 eV
print "Stacking-fault energy = ${SFE} mJ/m^2"
Stacking-fault energy = 110.64923594605 mJ/m^2
Total wall time: 0:00:06
