LAMMPS (17 Nov 2015)
WARNING: OMP_NUM_THREADS environment is not set. (../comm.cpp:90)
  using 1 OpenMP thread(s) per MPI task
# Input file for Stack Fault Energy surface of Nickel: originally Richard Glaze, 2014
# Modified Dec 2019 for generalised stacking faults

# --------------------- INITIALIZAITION ---------------------
read_restart ../../init/restart.opt
  orthogonal box = (-0.305467 -0.308632 -0.539994) to (69.2831 70.0011 122.476)
  1 by 2 by 3 MPI processor grid
  53760 atoms

change_box all boundary p p s
variable sca equal 16
variable scb equal 28
variable scc equal 10
variable latparam1 equal 3.52
variable x_displace equal -1.5747412224799715
variable xdim equal ${latparam1}*sqrt(6)/2*${sca}
variable xdim equal 3.52*sqrt(6)/2*${sca}
variable xdim equal 3.52*sqrt(6)/2*16
variable ydim equal ${latparam1}*sqrt(2)/2*${scb}
variable ydim equal 3.52*sqrt(2)/2*${scb}
variable ydim equal 3.52*sqrt(2)/2*28
variable zmid equal ${latparam1}*sqrt(3)*${scc}
variable zmid equal 3.52*sqrt(3)*${scc}
variable zmid equal 3.52*sqrt(3)*10
variable ztop equal ${zmid}*2
variable ztop equal 60.9681884264245*2
# --------------------- ATOM DEFINITION ---------------------
# Not needed because restarted
# --------------------- FORCE FIELDS ---------------------
pair_style eam/alloy
pair_coeff * * ../../../NiAlCoCrMoTiWTa.set Al Co Ni
#pair_coeff * * Ni99.eam.alloy Ni Ni
# Also not needed because restarted
# --------------------- SETTINGS ---------------------
compute peratom all pe/atom
compute eatoms all reduce sum c_peratom
compute csym all centro/atom fcc
thermo 1
thermo_style custom step pe c_eatoms
#dump 1 all custom 1 dump.relax.1.* id type xs ys zs c_peratom c_csym
run 0
WARNING: No fixes defined, atoms won't move (../verlet.cpp:55)
Neighbor list info ...
  2 neighbor list requests
  update every 1 steps, delay 10 steps, check yes
  max neighbors/atom: 2000, page size: 100000
  master list distance cutoff = 8.56034
  ghost atom cutoff = 8.56034
  binsize = 4.28017 -> bins = 17 17 29
Memory usage per processor = 5.18855 Mbytes
Step PotEng eatoms 
      38   -234482.26   -234482.26 
Loop time of 4.13259e-06 on 6 procs for 0 steps with 53760 atoms

161.3% CPU use with 6 MPI tasks x 1 OpenMP threads

MPI task timing breakdown:
Section |  min time  |  avg time  |  max time  |%varavg| %total
---------------------------------------------------------------
Pair    | 0          | 0          | 0          |   0.0 |  0.00
Neigh   | 0          | 0          | 0          |   0.0 |  0.00
Comm    | 0          | 0          | 0          |   0.0 |  0.00
Output  | 0          | 0          | 0          |   0.0 |  0.00
Modify  | 0          | 0          | 0          |   0.0 |  0.00
Other   |            | 4.133e-06  |            |       |100.00

Nlocal:    8960 ave 9125 max 8849 min
Histogram: 2 1 0 0 1 0 1 0 0 1
Nghost:    12178 ave 14551 max 10965 min
Histogram: 4 0 0 0 0 0 0 0 0 2
Neighs:    976936 ave 1.02163e+06 max 917197 min
Histogram: 1 1 0 0 0 0 1 1 0 2
FullNghs:  0 ave 0 max 0 min
Histogram: 6 0 0 0 0 0 0 0 0 0

Total # of neighbors = 5861616
Ave neighs/atom = 109.033
Neighbor list builds = 0
Dangerous builds = 0
#this command creates a model of the script before the displacement and minimization occur
variable E equal "c_eatoms"
variable Eo equal $E
variable Eo equal -234482.259789123
#variable E equal "c_eatoms" computes the initial energy of the model before any sliding is done
#E is necessary to store the initial energy in Eo
#group bot region 1
#group top region 2
# Groups are preserved after restart
displace_atoms top move ${x_displace} 0.0 0.0 units box
displace_atoms top move -1.57474122247997 0.0 0.0 units box

#displace_atoms is the command neccessary to move atoms into the next stacking arrangement (ie: A -> B)

fix 1 all setforce 0 0 NULL
min_style cg
minimize 1e-10 1e-10 1000 1000
WARNING: Resetting reneighboring criteria during minimization (../min.cpp:168)
Neighbor list info ...
  2 neighbor list requests
  update every 1 steps, delay 0 steps, check yes
  max neighbors/atom: 2000, page size: 100000
  master list distance cutoff = 8.56034
  ghost atom cutoff = 8.56034
  binsize = 4.28017 -> bins = 17 17 29
Memory usage per processor = 7.68855 Mbytes
Step PotEng eatoms 
      38   -234125.87   -234125.87 
      39    -234247.5    -234247.5 
      40   -234281.19   -234281.19 
      41   -234294.55   -234294.55 
      42   -234302.28   -234302.28 
      43   -234307.42   -234307.42 
      44   -234310.86   -234310.86 
      45   -234312.11   -234312.11 
      46   -234313.27   -234313.27 
      47      -234314      -234314 
      48   -234314.42   -234314.42 
      49   -234314.65   -234314.65 
      50   -234314.78   -234314.78 
      51   -234315.02   -234315.02 
      52   -234315.15   -234315.15 
      53   -234315.23   -234315.23 
      54   -234315.34   -234315.34 
      55    -234315.4    -234315.4 
      56   -234315.46   -234315.46 
      57    -234315.5    -234315.5 
      58   -234315.52   -234315.52 
      59   -234315.54   -234315.54 
      60   -234315.55   -234315.55 
      61   -234315.57   -234315.57 
      62   -234315.58   -234315.58 
      63   -234315.59   -234315.59 
      64    -234315.6    -234315.6 
      65   -234315.61   -234315.61 
      66   -234315.62   -234315.62 
      67   -234315.62   -234315.62 
      68   -234315.63   -234315.63 
      69   -234315.63   -234315.63 
      70   -234315.64   -234315.64 
      71   -234315.64   -234315.64 
      72   -234315.65   -234315.65 
      73   -234315.65   -234315.65 
      74   -234315.65   -234315.65 
      75   -234315.66   -234315.66 
      76   -234315.66   -234315.66 
      77   -234315.66   -234315.66 
      78   -234315.67   -234315.67 
      79   -234315.67   -234315.67 
      80   -234315.67   -234315.67 
      81   -234315.67   -234315.67 
      82   -234315.68   -234315.68 
      83   -234315.68   -234315.68 
      84   -234315.68   -234315.68 
      85   -234315.68   -234315.68 
      86   -234315.68   -234315.68 
      87   -234315.68   -234315.68 
      88   -234315.69   -234315.69 
      89   -234315.69   -234315.69 
      90   -234315.69   -234315.69 
      91   -234315.69   -234315.69 
      92   -234315.69   -234315.69 
      93   -234315.69   -234315.69 
      94   -234315.69   -234315.69 
      95   -234315.69   -234315.69 
      96   -234315.69   -234315.69 
      97   -234315.69   -234315.69 
      98   -234315.69   -234315.69 
      99   -234315.69   -234315.69 
     100    -234315.7    -234315.7 
     101    -234315.7    -234315.7 
     102    -234315.7    -234315.7 
     103    -234315.7    -234315.7 
     104    -234315.7    -234315.7 
     105    -234315.7    -234315.7 
     106    -234315.7    -234315.7 
     107    -234315.7    -234315.7 
     108    -234315.7    -234315.7 
     109    -234315.7    -234315.7 
     110    -234315.7    -234315.7 
     111    -234315.7    -234315.7 
     112    -234315.7    -234315.7 
     113    -234315.7    -234315.7 
     114    -234315.7    -234315.7 
     115    -234315.7    -234315.7 
     116    -234315.7    -234315.7 
     117   -234315.71   -234315.71 
     118   -234315.71   -234315.71 
     119   -234315.71   -234315.71 
     120   -234315.71   -234315.71 
     121   -234315.71   -234315.71 
     122   -234315.71   -234315.71 
     123   -234315.71   -234315.71 
     124   -234315.71   -234315.71 
     125   -234315.71   -234315.71 
     126   -234315.71   -234315.71 
     127   -234315.71   -234315.71 
     128   -234315.71   -234315.71 
     129   -234315.71   -234315.71 
     130   -234315.71   -234315.71 
     131   -234315.71   -234315.71 
     132   -234315.71   -234315.71 
     133   -234315.71   -234315.71 
     134   -234315.71   -234315.71 
     135   -234315.71   -234315.71 
     136   -234315.71   -234315.71 
     137   -234315.71   -234315.71 
     138   -234315.71   -234315.71 
Loop time of 10.6547 on 6 procs for 100 steps with 53760 atoms

100.0% CPU use with 6 MPI tasks x 1 OpenMP threads

Minimization stats:
  Stopping criterion = energy tolerance
  Energy initial, next-to-last, final = 
        -234125.865313     -234315.707383     -234315.707406
  Force two-norm initial, final = 92.5012 0.0175342
  Force max component initial, final = 4.3758 0.00252906
  Final line search alpha, max atom move = 1 0.00252906
  Iterations, force evaluations = 100 191

MPI task timing breakdown:
Section |  min time  |  avg time  |  max time  |%varavg| %total
---------------------------------------------------------------
Pair    | 8.3865     | 8.8955     | 9.301      |  11.2 | 83.49
Neigh   | 0          | 0          | 0          |   0.0 |  0.00
Comm    | 1.0954     | 1.5037     | 2.015      |  27.5 | 14.11
Output  | 0.0364     | 0.036811   | 0.038738   |   0.4 |  0.35
Modify  | 0.013789   | 0.014772   | 0.016586   |   1.0 |  0.14
Other   |            | 0.2039     |            |       |  1.91

Nlocal:    8960 ave 9125 max 8849 min
Histogram: 2 1 0 0 1 0 1 0 0 1
Nghost:    12193 ave 14556 max 11005 min
Histogram: 4 0 0 0 0 0 0 0 0 2
Neighs:    978610 ave 1.02689e+06 max 916932 min
Histogram: 1 1 0 0 0 0 2 0 0 2
FullNghs:  0 ave 0 max 0 min
Histogram: 6 0 0 0 0 0 0 0 0 0

Total # of neighbors = 5871660
Ave neighs/atom = 109.22
Neighbor list builds = 0
Dangerous builds = 0
variable Ef equal "c_eatoms"
variable Cf equal 1.60217657e-16
variable A equal (cella*cellb)*1e-20
variable SFE equal ((${Ef}-${Eo})*${Cf})/${A}
variable SFE equal ((-234315.70740553-${Eo})*${Cf})/${A}
variable SFE equal ((-234315.70740553--234482.259789123)*${Cf})/${A}
variable SFE equal ((-234315.70740553--234482.259789123)*1.60217657e-16)/${A}
variable SFE equal ((-234315.70740553--234482.259789123)*1.60217657e-16)/4.89275170426208e-17

#variable Ef equal "c_eatoms" computes the final energy of the system after sliding is done
#variable A is the area of the Stacking fault plane
#variable Cf is the conversion factor of electro volts to millijoules
#variable SFE is the stacking-fault energy of the system
####################################
# SIMULATION DONE
print "All done"
All done
print "Initial energy of atoms = ${Eo} eV"
Initial energy of atoms = -234482.259789123 eV
print "Final energy of atoms = ${Ef} eV"
Final energy of atoms = -234315.70740553 eV
print "Stacking-fault energy = ${SFE} mJ/m^2"
Stacking-fault energy = 545.391106681124 mJ/m^2
Total wall time: 0:00:10
