LAMMPS (17 Nov 2015)
WARNING: OMP_NUM_THREADS environment is not set. (../comm.cpp:90)
  using 1 OpenMP thread(s) per MPI task
# Input file for Stack Fault Energy surface of Nickel: originally Richard Glaze, 2014
# Modified Dec 2019 for generalised stacking faults

# --------------------- INITIALIZAITION ---------------------
read_restart ../../init/restart.opt
  orthogonal box = (-0.305467 -0.308632 -0.539994) to (69.2831 70.0011 122.476)
  1 by 2 by 3 MPI processor grid
  53760 atoms

change_box all boundary p p s
variable sca equal 16
variable scb equal 28
variable scc equal 10
variable latparam1 equal 3.52
variable x_displace equal -1.6497288997409225
variable xdim equal ${latparam1}*sqrt(6)/2*${sca}
variable xdim equal 3.52*sqrt(6)/2*${sca}
variable xdim equal 3.52*sqrt(6)/2*16
variable ydim equal ${latparam1}*sqrt(2)/2*${scb}
variable ydim equal 3.52*sqrt(2)/2*${scb}
variable ydim equal 3.52*sqrt(2)/2*28
variable zmid equal ${latparam1}*sqrt(3)*${scc}
variable zmid equal 3.52*sqrt(3)*${scc}
variable zmid equal 3.52*sqrt(3)*10
variable ztop equal ${zmid}*2
variable ztop equal 60.9681884264245*2
# --------------------- ATOM DEFINITION ---------------------
# Not needed because restarted
# --------------------- FORCE FIELDS ---------------------
pair_style eam/alloy
pair_coeff * * ../../../NiAlCoCrMoTiWTa.set Al Co Ni
#pair_coeff * * Ni99.eam.alloy Ni Ni
# Also not needed because restarted
# --------------------- SETTINGS ---------------------
compute peratom all pe/atom
compute eatoms all reduce sum c_peratom
compute csym all centro/atom fcc
thermo 1
thermo_style custom step pe c_eatoms
#dump 1 all custom 1 dump.relax.1.* id type xs ys zs c_peratom c_csym
run 0
WARNING: No fixes defined, atoms won't move (../verlet.cpp:55)
Neighbor list info ...
  2 neighbor list requests
  update every 1 steps, delay 10 steps, check yes
  max neighbors/atom: 2000, page size: 100000
  master list distance cutoff = 8.56034
  ghost atom cutoff = 8.56034
  binsize = 4.28017 -> bins = 17 17 29
Memory usage per processor = 5.18855 Mbytes
Step PotEng eatoms 
      38   -234482.26   -234482.26 
Loop time of 3.89417e-06 on 6 procs for 0 steps with 53760 atoms

141.2% CPU use with 6 MPI tasks x 1 OpenMP threads

MPI task timing breakdown:
Section |  min time  |  avg time  |  max time  |%varavg| %total
---------------------------------------------------------------
Pair    | 0          | 0          | 0          |   0.0 |  0.00
Neigh   | 0          | 0          | 0          |   0.0 |  0.00
Comm    | 0          | 0          | 0          |   0.0 |  0.00
Output  | 0          | 0          | 0          |   0.0 |  0.00
Modify  | 0          | 0          | 0          |   0.0 |  0.00
Other   |            | 3.894e-06  |            |       |100.00

Nlocal:    8960 ave 9125 max 8849 min
Histogram: 2 1 0 0 1 0 1 0 0 1
Nghost:    12178 ave 14551 max 10965 min
Histogram: 4 0 0 0 0 0 0 0 0 2
Neighs:    976936 ave 1.02163e+06 max 917197 min
Histogram: 1 1 0 0 0 0 1 1 0 2
FullNghs:  0 ave 0 max 0 min
Histogram: 6 0 0 0 0 0 0 0 0 0

Total # of neighbors = 5861616
Ave neighs/atom = 109.033
Neighbor list builds = 0
Dangerous builds = 0
#this command creates a model of the script before the displacement and minimization occur
variable E equal "c_eatoms"
variable Eo equal $E
variable Eo equal -234482.259789123
#variable E equal "c_eatoms" computes the initial energy of the model before any sliding is done
#E is necessary to store the initial energy in Eo
#group bot region 1
#group top region 2
# Groups are preserved after restart
displace_atoms top move ${x_displace} 0.0 0.0 units box
displace_atoms top move -1.64972889974092 0.0 0.0 units box

#displace_atoms is the command neccessary to move atoms into the next stacking arrangement (ie: A -> B)

fix 1 all setforce 0 0 NULL
min_style cg
minimize 1e-10 1e-10 1000 1000
WARNING: Resetting reneighboring criteria during minimization (../min.cpp:168)
Neighbor list info ...
  2 neighbor list requests
  update every 1 steps, delay 0 steps, check yes
  max neighbors/atom: 2000, page size: 100000
  master list distance cutoff = 8.56034
  ghost atom cutoff = 8.56034
  binsize = 4.28017 -> bins = 17 17 29
Memory usage per processor = 7.68855 Mbytes
Step PotEng eatoms 
      38   -234125.87   -234125.87 
      39   -234242.43   -234242.43 
      40   -234274.91   -234274.91 
      41   -234287.96   -234287.96 
      42   -234295.64   -234295.64 
      43   -234300.77   -234300.77 
      44   -234304.08   -234304.08 
      45   -234305.19   -234305.19 
      46   -234306.45   -234306.45 
      47   -234307.15   -234307.15 
      48   -234307.63   -234307.63 
      49   -234307.88   -234307.88 
      50      -234308      -234308 
      51   -234308.23   -234308.23 
      52    -234308.4    -234308.4 
      53   -234308.46   -234308.46 
      54   -234308.55   -234308.55 
      55   -234308.63   -234308.63 
      56   -234308.67   -234308.67 
      57   -234308.72   -234308.72 
      58   -234308.75   -234308.75 
      59   -234308.76   -234308.76 
      60   -234308.78   -234308.78 
      61    -234308.8    -234308.8 
      62   -234308.81   -234308.81 
      63   -234308.83   -234308.83 
      64   -234308.84   -234308.84 
      65   -234308.85   -234308.85 
      66   -234308.86   -234308.86 
      67   -234308.87   -234308.87 
      68   -234308.87   -234308.87 
      69   -234308.88   -234308.88 
      70   -234308.89   -234308.89 
      71   -234308.89   -234308.89 
      72    -234308.9    -234308.9 
      73    -234308.9    -234308.9 
      74   -234308.91   -234308.91 
      75   -234308.91   -234308.91 
      76   -234308.92   -234308.92 
      77   -234308.92   -234308.92 
      78   -234308.93   -234308.93 
      79   -234308.93   -234308.93 
      80   -234308.93   -234308.93 
      81   -234308.94   -234308.94 
      82   -234308.94   -234308.94 
      83   -234308.94   -234308.94 
      84   -234308.95   -234308.95 
      85   -234308.95   -234308.95 
      86   -234308.95   -234308.95 
      87   -234308.95   -234308.95 
      88   -234308.96   -234308.96 
      89   -234308.96   -234308.96 
      90   -234308.96   -234308.96 
      91   -234308.96   -234308.96 
      92   -234308.96   -234308.96 
      93   -234308.97   -234308.97 
      94   -234308.97   -234308.97 
      95   -234308.97   -234308.97 
      96   -234308.97   -234308.97 
      97   -234308.97   -234308.97 
      98   -234308.97   -234308.97 
      99   -234308.97   -234308.97 
     100   -234308.98   -234308.98 
     101   -234308.98   -234308.98 
     102   -234308.98   -234308.98 
     103   -234308.98   -234308.98 
     104   -234308.98   -234308.98 
     105   -234308.98   -234308.98 
     106   -234308.98   -234308.98 
     107   -234308.98   -234308.98 
     108   -234308.99   -234308.99 
     109   -234308.99   -234308.99 
     110   -234308.99   -234308.99 
     111   -234308.99   -234308.99 
     112   -234308.99   -234308.99 
     113   -234308.99   -234308.99 
     114   -234308.99   -234308.99 
     115   -234308.99   -234308.99 
     116   -234308.99   -234308.99 
     117   -234308.99   -234308.99 
     118   -234308.99   -234308.99 
     119   -234308.99   -234308.99 
     120   -234308.99   -234308.99 
     121   -234308.99   -234308.99 
     122   -234308.99   -234308.99 
     123   -234308.99   -234308.99 
     124   -234308.99   -234308.99 
     125   -234308.99   -234308.99 
     126   -234308.99   -234308.99 
     127   -234308.99   -234308.99 
     128   -234308.99   -234308.99 
     129   -234308.99   -234308.99 
     130   -234308.99   -234308.99 
     131   -234308.99   -234308.99 
     132   -234308.99   -234308.99 
     133      -234309      -234309 
     134      -234309      -234309 
     135      -234309      -234309 
     136      -234309      -234309 
     137      -234309      -234309 
     138      -234309      -234309 
     139      -234309      -234309 
     140      -234309      -234309 
     141      -234309      -234309 
Loop time of 11.8387 on 6 procs for 103 steps with 53760 atoms

99.9% CPU use with 6 MPI tasks x 1 OpenMP threads

Minimization stats:
  Stopping criterion = energy tolerance
  Energy initial, next-to-last, final = 
        -234125.865437     -234308.995311     -234308.995333
  Force two-norm initial, final = 89.1022 0.0185569
  Force max component initial, final = 4.2161 0.00392189
  Final line search alpha, max atom move = 1 0.00392189
  Iterations, force evaluations = 103 196

MPI task timing breakdown:
Section |  min time  |  avg time  |  max time  |%varavg| %total
---------------------------------------------------------------
Pair    | 8.6565     | 9.5675     | 11.405     |  29.8 | 80.82
Neigh   | 0          | 0          | 0          |   0.0 |  0.00
Comm    | 0.14392    | 1.9975     | 2.9031     |  65.7 | 16.87
Output  | 0.039912   | 0.040366   | 0.042307   |   0.4 |  0.34
Modify  | 0.012715   | 0.014672   | 0.017195   |   1.3 |  0.12
Other   |            | 0.2186     |            |       |  1.85

Nlocal:    8960 ave 9125 max 8849 min
Histogram: 2 1 0 0 1 0 1 0 0 1
Nghost:    12262 ave 14635 max 11009 min
Histogram: 4 0 0 0 0 0 0 0 0 2
Neighs:    978344 ave 1.02615e+06 max 916941 min
Histogram: 1 1 0 0 0 0 2 0 0 2
FullNghs:  0 ave 0 max 0 min
Histogram: 6 0 0 0 0 0 0 0 0 0

Total # of neighbors = 5870063
Ave neighs/atom = 109.19
Neighbor list builds = 0
Dangerous builds = 0
variable Ef equal "c_eatoms"
variable Cf equal 1.60217657e-16
variable A equal (cella*cellb)*1e-20
variable SFE equal ((${Ef}-${Eo})*${Cf})/${A}
variable SFE equal ((-234308.995333238-${Eo})*${Cf})/${A}
variable SFE equal ((-234308.995333238--234482.259789123)*${Cf})/${A}
variable SFE equal ((-234308.995333238--234482.259789123)*1.60217657e-16)/${A}
variable SFE equal ((-234308.995333238--234482.259789123)*1.60217657e-16)/4.89275170426208e-17

#variable Ef equal "c_eatoms" computes the final energy of the system after sliding is done
#variable A is the area of the Stacking fault plane
#variable Cf is the conversion factor of electro volts to millijoules
#variable SFE is the stacking-fault energy of the system
####################################
# SIMULATION DONE
print "All done"
All done
print "Initial energy of atoms = ${Eo} eV"
Initial energy of atoms = -234482.259789123 eV
print "Final energy of atoms = ${Ef} eV"
Final energy of atoms = -234308.995333238 eV
print "Stacking-fault energy = ${SFE} mJ/m^2"
Stacking-fault energy = 567.370405064507 mJ/m^2
Total wall time: 0:00:12
