LAMMPS (17 Nov 2015)
WARNING: OMP_NUM_THREADS environment is not set. (../comm.cpp:90)
  using 1 OpenMP thread(s) per MPI task
# Input file for Stack Fault Energy surface of Nickel: originally Richard Glaze, 2014
# Modified Dec 2019 for generalised stacking faults

# --------------------- INITIALIZAITION ---------------------
read_restart ../../init/restart.opt
  orthogonal box = (0.00367712 0.00371523 0.0065003) to (68.974 69.6887 121.93)
  1 by 2 by 3 MPI processor grid
  53760 atoms

change_box all boundary p p s
variable sca equal 16
variable scb equal 28
variable scc equal 10
variable latparam1 equal 3.52
variable x_displace equal -1.4121069626398273
variable xdim equal ${latparam1}*sqrt(6)/2*${sca}
variable xdim equal 3.52*sqrt(6)/2*${sca}
variable xdim equal 3.52*sqrt(6)/2*16
variable ydim equal ${latparam1}*sqrt(2)/2*${scb}
variable ydim equal 3.52*sqrt(2)/2*${scb}
variable ydim equal 3.52*sqrt(2)/2*28
variable zmid equal ${latparam1}*sqrt(3)*${scc}
variable zmid equal 3.52*sqrt(3)*${scc}
variable zmid equal 3.52*sqrt(3)*10
variable ztop equal ${zmid}*2
variable ztop equal 60.9681884264245*2
# --------------------- ATOM DEFINITION ---------------------
# Not needed because restarted
# --------------------- FORCE FIELDS ---------------------
pair_style eam/alloy
pair_coeff * * ../../../NiAlCoCrMoTiWTa.set Ni Ni
#pair_coeff * * Ni99.eam.alloy Ni Ni
# Also not needed because restarted
# --------------------- SETTINGS ---------------------
compute peratom all pe/atom
compute eatoms all reduce sum c_peratom
compute csym all centro/atom fcc
thermo 1
thermo_style custom step pe c_eatoms
#dump 1 all custom 1 dump.relax.1.* id type xs ys zs c_peratom c_csym
run 0
WARNING: No fixes defined, atoms won't move (../verlet.cpp:55)
Neighbor list info ...
  2 neighbor list requests
  update every 1 steps, delay 10 steps, check yes
  max neighbors/atom: 2000, page size: 100000
  master list distance cutoff = 8.56034
  ghost atom cutoff = 8.56034
  binsize = 4.28017 -> bins = 17 17 29
Memory usage per processor = 5.21199 Mbytes
Step PotEng eatoms 
       2   -238159.28   -238159.28 
Loop time of 5.126e-06 on 6 procs for 0 steps with 53760 atoms

143.1% CPU use with 6 MPI tasks x 1 OpenMP threads

MPI task timing breakdown:
Section |  min time  |  avg time  |  max time  |%varavg| %total
---------------------------------------------------------------
Pair    | 0          | 0          | 0          |   0.0 |  0.00
Neigh   | 0          | 0          | 0          |   0.0 |  0.00
Comm    | 0          | 0          | 0          |   0.0 |  0.00
Output  | 0          | 0          | 0          |   0.0 |  0.00
Modify  | 0          | 0          | 0          |   0.0 |  0.00
Other   |            | 5.126e-06  |            |       |100.00

Nlocal:    8960 ave 8960 max 8960 min
Histogram: 6 0 0 0 0 0 0 0 0 0
Nghost:    11638.3 ave 13811 max 10552 min
Histogram: 4 0 0 0 0 0 0 0 0 2
Neighs:    977984 ave 1.00355e+06 max 941536 min
Histogram: 2 0 0 0 0 0 0 2 0 2
FullNghs:  0 ave 0 max 0 min
Histogram: 6 0 0 0 0 0 0 0 0 0

Total # of neighbors = 5867904
Ave neighs/atom = 109.15
Neighbor list builds = 0
Dangerous builds = 0
#this command creates a model of the script before the displacement and minimization occur
variable E equal "c_eatoms"
variable Eo equal $E
variable Eo equal -238159.276198223
#variable E equal "c_eatoms" computes the initial energy of the model before any sliding is done
#E is necessary to store the initial energy in Eo
#group bot region 1
#group top region 2
# Groups are preserved after restart
displace_atoms top move ${x_displace} 0.0 0.0 units box
displace_atoms top move -1.41210696263983 0.0 0.0 units box

#displace_atoms is the command neccessary to move atoms into the next stacking arrangement (ie: A -> B)

fix 1 all setforce 0 0 NULL
min_style cg
minimize 1e-10 1e-10 1000 1000
WARNING: Resetting reneighboring criteria during minimization (../min.cpp:168)
Neighbor list info ...
  2 neighbor list requests
  update every 1 steps, delay 0 steps, check yes
  max neighbors/atom: 2000, page size: 100000
  master list distance cutoff = 8.56034
  ghost atom cutoff = 8.56034
  binsize = 4.28017 -> bins = 17 17 29
Memory usage per processor = 7.71199 Mbytes
Step PotEng eatoms 
       2   -238128.02   -238128.02 
       3   -238128.67   -238128.67 
       4   -238128.95   -238128.95 
       5   -238129.11   -238129.11 
       6    -238129.2    -238129.2 
       7   -238129.27   -238129.27 
       8   -238129.32   -238129.32 
       9   -238129.36   -238129.36 
      10   -238129.39   -238129.39 
      11   -238129.41   -238129.41 
      12   -238129.43   -238129.43 
      13   -238129.45   -238129.45 
      14   -238129.46   -238129.46 
      15   -238129.47   -238129.47 
      16   -238129.48   -238129.48 
      17   -238129.49   -238129.49 
      18    -238129.5    -238129.5 
      19   -238129.51   -238129.51 
      20   -238129.51   -238129.51 
      21   -238129.52   -238129.52 
      22   -238129.52   -238129.52 
      23   -238129.53   -238129.53 
      24   -238129.53   -238129.53 
      25   -238129.54   -238129.54 
      26   -238129.54   -238129.54 
      27   -238129.54   -238129.54 
      28   -238129.55   -238129.55 
      29   -238129.55   -238129.55 
      30   -238129.56   -238129.56 
      31   -238129.56   -238129.56 
      32   -238129.57   -238129.57 
      33   -238129.59   -238129.59 
      34    -238129.6    -238129.6 
      35   -238129.61   -238129.61 
      36   -238129.62   -238129.62 
      37   -238129.62   -238129.62 
      38   -238129.63   -238129.63 
      39   -238129.63   -238129.63 
      40   -238129.63   -238129.63 
      41   -238129.63   -238129.63 
      42   -238129.63   -238129.63 
      43   -238129.63   -238129.63 
      44   -238129.63   -238129.63 
      45   -238129.63   -238129.63 
      46   -238129.63   -238129.63 
      47   -238129.63   -238129.63 
      48   -238129.63   -238129.63 
      49   -238129.63   -238129.63 
      50   -238129.63   -238129.63 
      51   -238129.63   -238129.63 
      52   -238129.63   -238129.63 
      53   -238129.63   -238129.63 
      54   -238129.63   -238129.63 
      55   -238129.63   -238129.63 
      56   -238129.63   -238129.63 
      57   -238129.63   -238129.63 
      58   -238129.63   -238129.63 
      59   -238129.63   -238129.63 
      60   -238129.63   -238129.63 
      61   -238129.63   -238129.63 
      62   -238129.63   -238129.63 
Loop time of 5.89658 on 6 procs for 60 steps with 53760 atoms

100.0% CPU use with 6 MPI tasks x 1 OpenMP threads

Minimization stats:
  Stopping criterion = energy tolerance
  Energy initial, next-to-last, final = 
        -238128.022201     -238129.633757     -238129.633764
  Force two-norm initial, final = 3.89267 0.00620587
  Force max component initial, final = 0.0482015 8.18818e-05
  Final line search alpha, max atom move = 1 8.18818e-05
  Iterations, force evaluations = 60 120

MPI task timing breakdown:
Section |  min time  |  avg time  |  max time  |%varavg| %total
---------------------------------------------------------------
Pair    | 4.4392     | 4.916      | 5.6423     |  20.2 | 83.37
Neigh   | 0          | 0          | 0          |   0.0 |  0.00
Comm    | 0.087481   | 0.81983    | 1.3043     |  49.9 | 13.90
Output  | 0.021798   | 0.022034   | 0.023173   |   0.3 |  0.37
Modify  | 0.0077424  | 0.0092081  | 0.010442   |   1.0 |  0.16
Other   |            | 0.1295     |            |       |  2.20

Nlocal:    8960 ave 8960 max 8960 min
Histogram: 6 0 0 0 0 0 0 0 0 0
Nghost:    11638.3 ave 13811 max 10552 min
Histogram: 4 0 0 0 0 0 0 0 0 2
Neighs:    980971 ave 1.01168e+06 max 942368 min
Histogram: 2 0 0 0 0 0 2 0 0 2
FullNghs:  0 ave 0 max 0 min
Histogram: 6 0 0 0 0 0 0 0 0 0

Total # of neighbors = 5885824
Ave neighs/atom = 109.483
Neighbor list builds = 0
Dangerous builds = 0
variable Ef equal "c_eatoms"
variable Cf equal 1.60217657e-16
variable A equal (cella*cellb)*1e-20
variable SFE equal ((${Ef}-${Eo})*${Cf})/${A}
variable SFE equal ((-238129.633763505-${Eo})*${Cf})/${A}
variable SFE equal ((-238129.633763505--238159.276198223)*${Cf})/${A}
variable SFE equal ((-238129.633763505--238159.276198223)*1.60217657e-16)/${A}
variable SFE equal ((-238129.633763505--238159.276198223)*1.60217657e-16)/4.80619470511564e-17

#variable Ef equal "c_eatoms" computes the final energy of the system after sliding is done
#variable A is the area of the Stacking fault plane
#variable Cf is the conversion factor of electro volts to millijoules
#variable SFE is the stacking-fault energy of the system
####################################
# SIMULATION DONE
print "All done"
All done
print "Initial energy of atoms = ${Eo} eV"
Initial energy of atoms = -238159.276198223 eV
print "Final energy of atoms = ${Ef} eV"
Final energy of atoms = -238129.633763505 eV
print "Stacking-fault energy = ${SFE} mJ/m^2"
Stacking-fault energy = 98.8150029219248 mJ/m^2
Total wall time: 0:00:06
