LAMMPS (17 Nov 2015)
WARNING: OMP_NUM_THREADS environment is not set. (../comm.cpp:90)
  using 1 OpenMP thread(s) per MPI task
# Input file for Stack Fault Energy surface of Nickel: originally Richard Glaze, 2014
# Modified Dec 2019 for generalised stacking faults

# --------------------- INITIALIZAITION ---------------------
read_restart ../../init/restart.opt
  orthogonal box = (0.00367712 0.00371523 0.0065003) to (68.974 69.6887 121.93)
  1 by 2 by 3 MPI processor grid
  53760 atoms

change_box all boundary p p s
variable sca equal 16
variable scb equal 28
variable scc equal 10
variable latparam1 equal 3.52
variable x_displace equal -1.263464124467214
variable xdim equal ${latparam1}*sqrt(6)/2*${sca}
variable xdim equal 3.52*sqrt(6)/2*${sca}
variable xdim equal 3.52*sqrt(6)/2*16
variable ydim equal ${latparam1}*sqrt(2)/2*${scb}
variable ydim equal 3.52*sqrt(2)/2*${scb}
variable ydim equal 3.52*sqrt(2)/2*28
variable zmid equal ${latparam1}*sqrt(3)*${scc}
variable zmid equal 3.52*sqrt(3)*${scc}
variable zmid equal 3.52*sqrt(3)*10
variable ztop equal ${zmid}*2
variable ztop equal 60.9681884264245*2
# --------------------- ATOM DEFINITION ---------------------
# Not needed because restarted
# --------------------- FORCE FIELDS ---------------------
pair_style eam/alloy
pair_coeff * * ../../../NiAlCoCrMoTiWTa.set Ni Ni
#pair_coeff * * Ni99.eam.alloy Ni Ni
# Also not needed because restarted
# --------------------- SETTINGS ---------------------
compute peratom all pe/atom
compute eatoms all reduce sum c_peratom
compute csym all centro/atom fcc
thermo 1
thermo_style custom step pe c_eatoms
#dump 1 all custom 1 dump.relax.1.* id type xs ys zs c_peratom c_csym
run 0
WARNING: No fixes defined, atoms won't move (../verlet.cpp:55)
Neighbor list info ...
  2 neighbor list requests
  update every 1 steps, delay 10 steps, check yes
  max neighbors/atom: 2000, page size: 100000
  master list distance cutoff = 8.56034
  ghost atom cutoff = 8.56034
  binsize = 4.28017 -> bins = 17 17 29
Memory usage per processor = 5.21199 Mbytes
Step PotEng eatoms 
       2   -238159.28   -238159.28 
Loop time of 4.01338e-06 on 6 procs for 0 steps with 53760 atoms

149.5% CPU use with 6 MPI tasks x 1 OpenMP threads

MPI task timing breakdown:
Section |  min time  |  avg time  |  max time  |%varavg| %total
---------------------------------------------------------------
Pair    | 0          | 0          | 0          |   0.0 |  0.00
Neigh   | 0          | 0          | 0          |   0.0 |  0.00
Comm    | 0          | 0          | 0          |   0.0 |  0.00
Output  | 0          | 0          | 0          |   0.0 |  0.00
Modify  | 0          | 0          | 0          |   0.0 |  0.00
Other   |            | 4.013e-06  |            |       |100.00

Nlocal:    8960 ave 8960 max 8960 min
Histogram: 6 0 0 0 0 0 0 0 0 0
Nghost:    11638.3 ave 13811 max 10552 min
Histogram: 4 0 0 0 0 0 0 0 0 2
Neighs:    977984 ave 1.00355e+06 max 941536 min
Histogram: 2 0 0 0 0 0 0 2 0 2
FullNghs:  0 ave 0 max 0 min
Histogram: 6 0 0 0 0 0 0 0 0 0

Total # of neighbors = 5867904
Ave neighs/atom = 109.15
Neighbor list builds = 0
Dangerous builds = 0
#this command creates a model of the script before the displacement and minimization occur
variable E equal "c_eatoms"
variable Eo equal $E
variable Eo equal -238159.276198223
#variable E equal "c_eatoms" computes the initial energy of the model before any sliding is done
#E is necessary to store the initial energy in Eo
#group bot region 1
#group top region 2
# Groups are preserved after restart
displace_atoms top move ${x_displace} 0.0 0.0 units box
displace_atoms top move -1.26346412446721 0.0 0.0 units box

#displace_atoms is the command neccessary to move atoms into the next stacking arrangement (ie: A -> B)

fix 1 all setforce 0 0 NULL
min_style cg
minimize 1e-10 1e-10 1000 1000
WARNING: Resetting reneighboring criteria during minimization (../min.cpp:168)
Neighbor list info ...
  2 neighbor list requests
  update every 1 steps, delay 0 steps, check yes
  max neighbors/atom: 2000, page size: 100000
  master list distance cutoff = 8.56034
  ghost atom cutoff = 8.56034
  binsize = 4.28017 -> bins = 17 17 29
Memory usage per processor = 7.71199 Mbytes
Step PotEng eatoms 
       2   -238117.13   -238117.13 
       3   -238118.08   -238118.08 
       4   -238118.45   -238118.45 
       5   -238118.68   -238118.68 
       6   -238118.81   -238118.81 
       7   -238118.93   -238118.93 
       8   -238119.01   -238119.01 
       9   -238119.05   -238119.05 
      10   -238119.09   -238119.09 
      11   -238119.13   -238119.13 
      12   -238119.16   -238119.16 
      13   -238119.18   -238119.18 
      14    -238119.2    -238119.2 
      15   -238119.22   -238119.22 
      16   -238119.23   -238119.23 
      17   -238119.24   -238119.24 
      18   -238119.25   -238119.25 
      19   -238119.26   -238119.26 
      20   -238119.27   -238119.27 
      21   -238119.28   -238119.28 
      22   -238119.29   -238119.29 
      23    -238119.3    -238119.3 
      24    -238119.3    -238119.3 
      25   -238119.31   -238119.31 
      26   -238119.31   -238119.31 
      27   -238119.32   -238119.32 
      28   -238119.32   -238119.32 
      29   -238119.33   -238119.33 
      30   -238119.33   -238119.33 
      31   -238119.34   -238119.34 
      32   -238119.35   -238119.35 
      33   -238119.37   -238119.37 
      34   -238119.39   -238119.39 
      35    -238119.4    -238119.4 
      36   -238119.41   -238119.41 
      37   -238119.42   -238119.42 
      38   -238119.42   -238119.42 
      39   -238119.43   -238119.43 
      40   -238119.43   -238119.43 
      41   -238119.43   -238119.43 
      42   -238119.43   -238119.43 
      43   -238119.43   -238119.43 
      44   -238119.43   -238119.43 
      45   -238119.43   -238119.43 
      46   -238119.43   -238119.43 
      47   -238119.43   -238119.43 
      48   -238119.43   -238119.43 
      49   -238119.44   -238119.44 
      50   -238119.44   -238119.44 
      51   -238119.44   -238119.44 
      52   -238119.44   -238119.44 
      53   -238119.44   -238119.44 
      54   -238119.44   -238119.44 
      55   -238119.44   -238119.44 
      56   -238119.44   -238119.44 
      57   -238119.44   -238119.44 
      58   -238119.44   -238119.44 
      59   -238119.44   -238119.44 
      60   -238119.44   -238119.44 
      61   -238119.44   -238119.44 
      62   -238119.44   -238119.44 
      63   -238119.44   -238119.44 
Loop time of 6.22731 on 6 procs for 61 steps with 53760 atoms

100.0% CPU use with 6 MPI tasks x 1 OpenMP threads

Minimization stats:
  Stopping criterion = energy tolerance
  Energy initial, next-to-last, final = 
        -238117.126028     -238119.436343     -238119.436356
  Force two-norm initial, final = 4.90024 0.00859614
  Force max component initial, final = 0.0875716 0.000121489
  Final line search alpha, max atom move = 1 0.000121489
  Iterations, force evaluations = 61 122

MPI task timing breakdown:
Section |  min time  |  avg time  |  max time  |%varavg| %total
---------------------------------------------------------------
Pair    | 4.6816     | 5.1161     | 5.963      |  23.0 | 82.16
Neigh   | 0          | 0          | 0          |   0.0 |  0.00
Comm    | 0.086231   | 0.94234    | 1.386      |  54.2 | 15.13
Output  | 0.022673   | 0.022922   | 0.024071   |   0.3 |  0.37
Modify  | 0.0080795  | 0.0094904  | 0.011454   |   1.3 |  0.15
Other   |            | 0.1365     |            |       |  2.19

Nlocal:    8960 ave 8960 max 8960 min
Histogram: 6 0 0 0 0 0 0 0 0 0
Nghost:    11722.3 ave 13895 max 10552 min
Histogram: 4 0 0 0 0 0 0 0 0 2
Neighs:    980373 ave 1.00989e+06 max 942368 min
Histogram: 2 0 0 0 0 0 2 0 0 2
FullNghs:  0 ave 0 max 0 min
Histogram: 6 0 0 0 0 0 0 0 0 0

Total # of neighbors = 5882240
Ave neighs/atom = 109.417
Neighbor list builds = 0
Dangerous builds = 0
variable Ef equal "c_eatoms"
variable Cf equal 1.60217657e-16
variable A equal (cella*cellb)*1e-20
variable SFE equal ((${Ef}-${Eo})*${Cf})/${A}
variable SFE equal ((-238119.436355529-${Eo})*${Cf})/${A}
variable SFE equal ((-238119.436355529--238159.276198223)*${Cf})/${A}
variable SFE equal ((-238119.436355529--238159.276198223)*1.60217657e-16)/${A}
variable SFE equal ((-238119.436355529--238159.276198223)*1.60217657e-16)/4.80619470511564e-17

#variable Ef equal "c_eatoms" computes the final energy of the system after sliding is done
#variable A is the area of the Stacking fault plane
#variable Cf is the conversion factor of electro volts to millijoules
#variable SFE is the stacking-fault energy of the system
####################################
# SIMULATION DONE
print "All done"
All done
print "Initial energy of atoms = ${Eo} eV"
Initial energy of atoms = -238159.276198223 eV
print "Final energy of atoms = ${Ef} eV"
Final energy of atoms = -238119.436355529 eV
print "Stacking-fault energy = ${SFE} mJ/m^2"
Stacking-fault energy = 132.808732132443 mJ/m^2
Total wall time: 0:00:06
