LAMMPS (17 Nov 2015)
WARNING: OMP_NUM_THREADS environment is not set. (../comm.cpp:90)
  using 1 OpenMP thread(s) per MPI task
# Input file for Stack Fault Energy surface of Nickel: originally Richard Glaze, 2014
# Modified Dec 2019 for generalised stacking faults

# --------------------- INITIALIZAITION ---------------------
read_restart ../../init/restart.opt
  orthogonal box = (0.00367712 0.00371523 0.0065003) to (68.974 69.6887 121.93)
  1 by 2 by 3 MPI processor grid
  53760 atoms

change_box all boundary p p s
variable sca equal 16
variable scb equal 28
variable scc equal 10
variable latparam1 equal 3.52
variable x_displace equal -0.6688927717767605
variable xdim equal ${latparam1}*sqrt(6)/2*${sca}
variable xdim equal 3.52*sqrt(6)/2*${sca}
variable xdim equal 3.52*sqrt(6)/2*16
variable ydim equal ${latparam1}*sqrt(2)/2*${scb}
variable ydim equal 3.52*sqrt(2)/2*${scb}
variable ydim equal 3.52*sqrt(2)/2*28
variable zmid equal ${latparam1}*sqrt(3)*${scc}
variable zmid equal 3.52*sqrt(3)*${scc}
variable zmid equal 3.52*sqrt(3)*10
variable ztop equal ${zmid}*2
variable ztop equal 60.9681884264245*2
# --------------------- ATOM DEFINITION ---------------------
# Not needed because restarted
# --------------------- FORCE FIELDS ---------------------
pair_style eam/alloy
pair_coeff * * ../../../NiAlCoCrMoTiWTa.set Ni Ni
#pair_coeff * * Ni99.eam.alloy Ni Ni
# Also not needed because restarted
# --------------------- SETTINGS ---------------------
compute peratom all pe/atom
compute eatoms all reduce sum c_peratom
compute csym all centro/atom fcc
thermo 1
thermo_style custom step pe c_eatoms
#dump 1 all custom 1 dump.relax.1.* id type xs ys zs c_peratom c_csym
run 0
WARNING: No fixes defined, atoms won't move (../verlet.cpp:55)
Neighbor list info ...
  2 neighbor list requests
  update every 1 steps, delay 10 steps, check yes
  max neighbors/atom: 2000, page size: 100000
  master list distance cutoff = 8.56034
  ghost atom cutoff = 8.56034
  binsize = 4.28017 -> bins = 17 17 29
Memory usage per processor = 5.21199 Mbytes
Step PotEng eatoms 
       2   -238159.28   -238159.28 
Loop time of 3.49681e-06 on 6 procs for 0 steps with 53760 atoms

157.3% CPU use with 6 MPI tasks x 1 OpenMP threads

MPI task timing breakdown:
Section |  min time  |  avg time  |  max time  |%varavg| %total
---------------------------------------------------------------
Pair    | 0          | 0          | 0          |   0.0 |  0.00
Neigh   | 0          | 0          | 0          |   0.0 |  0.00
Comm    | 0          | 0          | 0          |   0.0 |  0.00
Output  | 0          | 0          | 0          |   0.0 |  0.00
Modify  | 0          | 0          | 0          |   0.0 |  0.00
Other   |            | 3.497e-06  |            |       |100.00

Nlocal:    8960 ave 8960 max 8960 min
Histogram: 6 0 0 0 0 0 0 0 0 0
Nghost:    11638.3 ave 13811 max 10552 min
Histogram: 4 0 0 0 0 0 0 0 0 2
Neighs:    977984 ave 1.00355e+06 max 941536 min
Histogram: 2 0 0 0 0 0 0 2 0 2
FullNghs:  0 ave 0 max 0 min
Histogram: 6 0 0 0 0 0 0 0 0 0

Total # of neighbors = 5867904
Ave neighs/atom = 109.15
Neighbor list builds = 0
Dangerous builds = 0
#this command creates a model of the script before the displacement and minimization occur
variable E equal "c_eatoms"
variable Eo equal $E
variable Eo equal -238159.276198223
#variable E equal "c_eatoms" computes the initial energy of the model before any sliding is done
#E is necessary to store the initial energy in Eo
#group bot region 1
#group top region 2
# Groups are preserved after restart
displace_atoms top move ${x_displace} 0.0 0.0 units box
displace_atoms top move -0.668892771776761 0.0 0.0 units box

#displace_atoms is the command neccessary to move atoms into the next stacking arrangement (ie: A -> B)

fix 1 all setforce 0 0 NULL
min_style cg
minimize 1e-10 1e-10 1000 1000
WARNING: Resetting reneighboring criteria during minimization (../min.cpp:168)
Neighbor list info ...
  2 neighbor list requests
  update every 1 steps, delay 0 steps, check yes
  max neighbors/atom: 2000, page size: 100000
  master list distance cutoff = 8.56034
  ghost atom cutoff = 8.56034
  binsize = 4.28017 -> bins = 17 17 29
Memory usage per processor = 7.71199 Mbytes
Step PotEng eatoms 
       2   -238079.67   -238079.67 
       3   -238084.09   -238084.09 
       4   -238085.02   -238085.02 
       5   -238085.51   -238085.51 
       6   -238085.77   -238085.77 
       7   -238086.03   -238086.03 
       8   -238086.15   -238086.15 
       9   -238086.24   -238086.24 
      10   -238086.33   -238086.33 
      11   -238086.38   -238086.38 
      12   -238086.43   -238086.43 
      13   -238086.47   -238086.47 
      14    -238086.5    -238086.5 
      15   -238086.53   -238086.53 
      16   -238086.56   -238086.56 
      17   -238086.57   -238086.57 
      18   -238086.59   -238086.59 
      19   -238086.61   -238086.61 
      20   -238086.62   -238086.62 
      21   -238086.64   -238086.64 
      22   -238086.65   -238086.65 
      23   -238086.66   -238086.66 
      24   -238086.67   -238086.67 
      25   -238086.68   -238086.68 
      26   -238086.69   -238086.69 
      27    -238086.7    -238086.7 
      28    -238086.7    -238086.7 
      29   -238086.71   -238086.71 
      30   -238086.72   -238086.72 
      31   -238086.72   -238086.72 
      32   -238086.73   -238086.73 
      33   -238086.75   -238086.75 
      34   -238086.77   -238086.77 
      35   -238086.81   -238086.81 
      36   -238086.83   -238086.83 
      37   -238086.84   -238086.84 
      38   -238086.86   -238086.86 
      39   -238086.86   -238086.86 
      40   -238086.87   -238086.87 
      41   -238086.87   -238086.87 
      42   -238086.87   -238086.87 
      43   -238086.88   -238086.88 
      44   -238086.88   -238086.88 
      45   -238086.88   -238086.88 
      46   -238086.88   -238086.88 
      47   -238086.88   -238086.88 
      48   -238086.88   -238086.88 
      49   -238086.88   -238086.88 
      50   -238086.88   -238086.88 
      51   -238086.88   -238086.88 
      52   -238086.88   -238086.88 
      53   -238086.88   -238086.88 
      54   -238086.88   -238086.88 
      55   -238086.88   -238086.88 
      56   -238086.88   -238086.88 
      57   -238086.88   -238086.88 
      58   -238086.88   -238086.88 
      59   -238086.88   -238086.88 
      60   -238086.88   -238086.88 
      61   -238086.88   -238086.88 
      62   -238086.88   -238086.88 
      63   -238086.88   -238086.88 
      64   -238086.88   -238086.88 
      65   -238086.88   -238086.88 
Loop time of 6.1527 on 6 procs for 63 steps with 53760 atoms

100.0% CPU use with 6 MPI tasks x 1 OpenMP threads

Minimization stats:
  Stopping criterion = energy tolerance
  Energy initial, next-to-last, final = 
        -238079.667932      -238086.88378     -238086.883789
  Force two-norm initial, final = 12.6299 0.00591623
  Force max component initial, final = 0.291652 7.49947e-05
  Final line search alpha, max atom move = 1 7.49947e-05
  Iterations, force evaluations = 63 126

MPI task timing breakdown:
Section |  min time  |  avg time  |  max time  |%varavg| %total
---------------------------------------------------------------
Pair    | 4.4886     | 4.9714     | 5.89       |  26.6 | 80.80
Neigh   | 0          | 0          | 0          |   0.0 |  0.00
Comm    | 0.083304   | 1.0098     | 1.4996     |  59.6 | 16.41
Output  | 0.023176   | 0.023423   | 0.024565   |   0.3 |  0.38
Modify  | 0.0081451  | 0.0095861  | 0.010869   |   1.0 |  0.16
Other   |            | 0.1384     |            |       |  2.25

Nlocal:    8960 ave 8960 max 8960 min
Histogram: 6 0 0 0 0 0 0 0 0 0
Nghost:    11635.7 ave 13795 max 10552 min
Histogram: 4 0 0 0 0 0 0 0 0 2
Neighs:    980971 ave 1.01328e+06 max 940768 min
Histogram: 2 0 0 0 0 0 2 0 0 2
FullNghs:  0 ave 0 max 0 min
Histogram: 6 0 0 0 0 0 0 0 0 0

Total # of neighbors = 5885824
Ave neighs/atom = 109.483
Neighbor list builds = 0
Dangerous builds = 0
variable Ef equal "c_eatoms"
variable Cf equal 1.60217657e-16
variable A equal (cella*cellb)*1e-20
variable SFE equal ((${Ef}-${Eo})*${Cf})/${A}
variable SFE equal ((-238086.883788494-${Eo})*${Cf})/${A}
variable SFE equal ((-238086.883788494--238159.276198223)*${Cf})/${A}
variable SFE equal ((-238086.883788494--238159.276198223)*1.60217657e-16)/${A}
variable SFE equal ((-238086.883788494--238159.276198223)*1.60217657e-16)/4.80619470511564e-17

#variable Ef equal "c_eatoms" computes the final energy of the system after sliding is done
#variable A is the area of the Stacking fault plane
#variable Cf is the conversion factor of electro volts to millijoules
#variable SFE is the stacking-fault energy of the system
####################################
# SIMULATION DONE
print "All done"
All done
print "Initial energy of atoms = ${Eo} eV"
Initial energy of atoms = -238159.276198223 eV
print "Final energy of atoms = ${Ef} eV"
Final energy of atoms = -238086.883788494 eV
print "Stacking-fault energy = ${SFE} mJ/m^2"
Stacking-fault energy = 241.324852258304 mJ/m^2
Total wall time: 0:00:06
