LAMMPS (17 Nov 2015)
WARNING: OMP_NUM_THREADS environment is not set. (../comm.cpp:90)
  using 1 OpenMP thread(s) per MPI task
# Input file for Stack Fault Energy surface of Nickel: originally Richard Glaze, 2014
# Modified Dec 2019 for generalised stacking faults

# --------------------- INITIALIZAITION ---------------------
read_restart ../../init/restart.opt
  orthogonal box = (-0.305467 -0.308632 -0.539994) to (69.2831 70.0011 122.476)
  1 by 2 by 3 MPI processor grid
  53760 atoms

change_box all boundary p p s
variable sca equal 16
variable scb equal 28
variable scc equal 10
variable latparam1 equal 3.52
variable x_displace equal -0.2249630317828531
variable xdim equal ${latparam1}*sqrt(6)/2*${sca}
variable xdim equal 3.52*sqrt(6)/2*${sca}
variable xdim equal 3.52*sqrt(6)/2*16
variable ydim equal ${latparam1}*sqrt(2)/2*${scb}
variable ydim equal 3.52*sqrt(2)/2*${scb}
variable ydim equal 3.52*sqrt(2)/2*28
variable zmid equal ${latparam1}*sqrt(3)*${scc}
variable zmid equal 3.52*sqrt(3)*${scc}
variable zmid equal 3.52*sqrt(3)*10
variable ztop equal ${zmid}*2
variable ztop equal 60.9681884264245*2
# --------------------- ATOM DEFINITION ---------------------
# Not needed because restarted
# --------------------- FORCE FIELDS ---------------------
pair_style eam/alloy
pair_coeff * * ../../../NiAlCoCrMoTiWTa.set Al Co Ni
#pair_coeff * * Ni99.eam.alloy Ni Ni
# Also not needed because restarted
# --------------------- SETTINGS ---------------------
compute peratom all pe/atom
compute eatoms all reduce sum c_peratom
compute csym all centro/atom fcc
thermo 1
thermo_style custom step pe c_eatoms
#dump 1 all custom 1 dump.relax.1.* id type xs ys zs c_peratom c_csym
run 0
WARNING: No fixes defined, atoms won't move (../verlet.cpp:55)
Neighbor list info ...
  2 neighbor list requests
  update every 1 steps, delay 10 steps, check yes
  max neighbors/atom: 2000, page size: 100000
  master list distance cutoff = 8.56034
  ghost atom cutoff = 8.56034
  binsize = 4.28017 -> bins = 17 17 29
Memory usage per processor = 5.18855 Mbytes
Step PotEng eatoms 
      38   -234482.26   -234482.26 
Loop time of 3.57628e-06 on 6 procs for 0 steps with 53760 atoms

163.1% CPU use with 6 MPI tasks x 1 OpenMP threads

MPI task timing breakdown:
Section |  min time  |  avg time  |  max time  |%varavg| %total
---------------------------------------------------------------
Pair    | 0          | 0          | 0          |   0.0 |  0.00
Neigh   | 0          | 0          | 0          |   0.0 |  0.00
Comm    | 0          | 0          | 0          |   0.0 |  0.00
Output  | 0          | 0          | 0          |   0.0 |  0.00
Modify  | 0          | 0          | 0          |   0.0 |  0.00
Other   |            | 3.576e-06  |            |       |100.00

Nlocal:    8960 ave 9125 max 8849 min
Histogram: 2 1 0 0 1 0 1 0 0 1
Nghost:    12178 ave 14551 max 10965 min
Histogram: 4 0 0 0 0 0 0 0 0 2
Neighs:    976936 ave 1.02163e+06 max 917197 min
Histogram: 1 1 0 0 0 0 1 1 0 2
FullNghs:  0 ave 0 max 0 min
Histogram: 6 0 0 0 0 0 0 0 0 0

Total # of neighbors = 5861616
Ave neighs/atom = 109.033
Neighbor list builds = 0
Dangerous builds = 0
#this command creates a model of the script before the displacement and minimization occur
variable E equal "c_eatoms"
variable Eo equal $E
variable Eo equal -234482.259789123
#variable E equal "c_eatoms" computes the initial energy of the model before any sliding is done
#E is necessary to store the initial energy in Eo
#group bot region 1
#group top region 2
# Groups are preserved after restart
displace_atoms top move ${x_displace} 0.0 0.0 units box
displace_atoms top move -0.224963031782853 0.0 0.0 units box

#displace_atoms is the command neccessary to move atoms into the next stacking arrangement (ie: A -> B)

fix 1 all setforce 0 0 NULL
min_style cg
minimize 1e-10 1e-10 1000 1000
WARNING: Resetting reneighboring criteria during minimization (../min.cpp:168)
Neighbor list info ...
  2 neighbor list requests
  update every 1 steps, delay 0 steps, check yes
  max neighbors/atom: 2000, page size: 100000
  master list distance cutoff = 8.56034
  ghost atom cutoff = 8.56034
  binsize = 4.28017 -> bins = 17 17 29
Memory usage per processor = 7.68855 Mbytes
Step PotEng eatoms 
      38   -234450.98   -234450.98 
      39   -234467.33   -234467.33 
      40   -234477.28   -234477.28 
      41   -234482.52   -234482.52 
      42   -234484.96   -234484.96 
      43   -234487.39   -234487.39 
      44   -234487.87   -234487.87 
      45   -234488.56   -234488.56 
      46   -234489.02   -234489.02 
      47   -234489.14   -234489.14 
      48   -234489.25   -234489.25 
      49   -234489.33   -234489.33 
      50   -234489.42   -234489.42 
      51   -234489.46   -234489.46 
      52   -234489.48   -234489.48 
      53   -234489.51   -234489.51 
      54   -234489.53   -234489.53 
      55   -234489.55   -234489.55 
      56   -234489.56   -234489.56 
      57   -234489.57   -234489.57 
      58   -234489.58   -234489.58 
      59   -234489.59   -234489.59 
      60    -234489.6    -234489.6 
      61    -234489.6    -234489.6 
      62   -234489.61   -234489.61 
      63   -234489.61   -234489.61 
      64   -234489.61   -234489.61 
      65   -234489.62   -234489.62 
      66   -234489.62   -234489.62 
      67   -234489.62   -234489.62 
      68   -234489.62   -234489.62 
      69   -234489.62   -234489.62 
      70   -234489.62   -234489.62 
      71   -234489.62   -234489.62 
      72   -234489.63   -234489.63 
      73   -234489.63   -234489.63 
      74   -234489.63   -234489.63 
      75   -234489.63   -234489.63 
      76   -234489.63   -234489.63 
      77   -234489.63   -234489.63 
      78   -234489.63   -234489.63 
      79   -234489.63   -234489.63 
      80   -234489.63   -234489.63 
      81   -234489.63   -234489.63 
      82   -234489.63   -234489.63 
      83   -234489.63   -234489.63 
      84   -234489.63   -234489.63 
      85   -234489.63   -234489.63 
      86   -234489.63   -234489.63 
      87   -234489.63   -234489.63 
      88   -234489.63   -234489.63 
      89   -234489.63   -234489.63 
      90   -234489.63   -234489.63 
      91   -234489.63   -234489.63 
      92   -234489.63   -234489.63 
      93   -234489.63   -234489.63 
      94   -234489.63   -234489.63 
      95   -234489.63   -234489.63 
      96   -234489.63   -234489.63 
      97   -234489.63   -234489.63 
      98   -234489.63   -234489.63 
      99   -234489.63   -234489.63 
     100   -234489.63   -234489.63 
     101   -234489.63   -234489.63 
     102   -234489.63   -234489.63 
     103   -234489.63   -234489.63 
     104   -234489.63   -234489.63 
     105   -234489.63   -234489.63 
     106   -234489.63   -234489.63 
     107   -234489.63   -234489.63 
     108   -234489.63   -234489.63 
     109   -234489.63   -234489.63 
     110   -234489.63   -234489.63 
     111   -234489.63   -234489.63 
     112   -234489.63   -234489.63 
     113   -234489.63   -234489.63 
     114   -234489.63   -234489.63 
     115   -234489.63   -234489.63 
Loop time of 9.09064 on 6 procs for 77 steps with 53760 atoms

99.8% CPU use with 6 MPI tasks x 1 OpenMP threads

Minimization stats:
  Stopping criterion = energy tolerance
  Energy initial, next-to-last, final = 
        -234450.976884     -234489.632808     -234489.632829
  Force two-norm initial, final = 18.5947 0.014737
  Force max component initial, final = 1.57974 0.000379683
  Final line search alpha, max atom move = 1 0.000379683
  Iterations, force evaluations = 77 150

MPI task timing breakdown:
Section |  min time  |  avg time  |  max time  |%varavg| %total
---------------------------------------------------------------
Pair    | 6.8624     | 7.6572     | 8.7147     |  24.2 | 84.23
Neigh   | 0          | 0          | 0          |   0.0 |  0.00
Comm    | 0.13616    | 1.2052     | 2.0049     |  61.8 | 13.26
Output  | 0.030606   | 0.031012   | 0.032835   |   0.5 |  0.34
Modify  | 0.012002   | 0.01299    | 0.014485   |   0.9 |  0.14
Other   |            | 0.1843     |            |       |  2.03

Nlocal:    8960 ave 9125 max 8849 min
Histogram: 2 1 0 0 1 0 1 0 0 1
Nghost:    12262 ave 14635 max 11009 min
Histogram: 4 0 0 0 0 0 0 0 0 2
Neighs:    977336 ave 1.02251e+06 max 917476 min
Histogram: 1 1 0 0 0 0 1 1 0 2
FullNghs:  0 ave 0 max 0 min
Histogram: 6 0 0 0 0 0 0 0 0 0

Total # of neighbors = 5864018
Ave neighs/atom = 109.078
Neighbor list builds = 0
Dangerous builds = 0
variable Ef equal "c_eatoms"
variable Cf equal 1.60217657e-16
variable A equal (cella*cellb)*1e-20
variable SFE equal ((${Ef}-${Eo})*${Cf})/${A}
variable SFE equal ((-234489.632828866-${Eo})*${Cf})/${A}
variable SFE equal ((-234489.632828866--234482.259789123)*${Cf})/${A}
variable SFE equal ((-234489.632828866--234482.259789123)*1.60217657e-16)/${A}
variable SFE equal ((-234489.632828866--234482.259789123)*1.60217657e-16)/4.89275170426208e-17

#variable Ef equal "c_eatoms" computes the final energy of the system after sliding is done
#variable A is the area of the Stacking fault plane
#variable Cf is the conversion factor of electro volts to millijoules
#variable SFE is the stacking-fault energy of the system
####################################
# SIMULATION DONE
print "All done"
All done
print "Initial energy of atoms = ${Eo} eV"
Initial energy of atoms = -234482.259789123 eV
print "Final energy of atoms = ${Ef} eV"
Final energy of atoms = -234489.632828866 eV
print "Stacking-fault energy = ${SFE} mJ/m^2"
Stacking-fault energy = -24.1436971257034 mJ/m^2
Total wall time: 0:00:09
