LAMMPS (17 Nov 2015)
WARNING: OMP_NUM_THREADS environment is not set. (../comm.cpp:90)
  using 1 OpenMP thread(s) per MPI task
# Input file for Stack Fault Energy surface of Nickel: originally Richard Glaze, 2014
# Modified Dec 2019 for generalised stacking faults

# --------------------- INITIALIZAITION ---------------------
read_restart ../../init/restart.opt
  orthogonal box = (-0.305467 -0.308632 -0.539994) to (69.2831 70.0011 122.476)
  1 by 2 by 3 MPI processor grid
  53760 atoms

change_box all boundary p p s
variable sca equal 16
variable scb equal 28
variable scc equal 10
variable latparam1 equal 3.52
variable x_displace equal -0.5999014180876082
variable xdim equal ${latparam1}*sqrt(6)/2*${sca}
variable xdim equal 3.52*sqrt(6)/2*${sca}
variable xdim equal 3.52*sqrt(6)/2*16
variable ydim equal ${latparam1}*sqrt(2)/2*${scb}
variable ydim equal 3.52*sqrt(2)/2*${scb}
variable ydim equal 3.52*sqrt(2)/2*28
variable zmid equal ${latparam1}*sqrt(3)*${scc}
variable zmid equal 3.52*sqrt(3)*${scc}
variable zmid equal 3.52*sqrt(3)*10
variable ztop equal ${zmid}*2
variable ztop equal 60.9681884264245*2
# --------------------- ATOM DEFINITION ---------------------
# Not needed because restarted
# --------------------- FORCE FIELDS ---------------------
pair_style eam/alloy
pair_coeff * * ../../../NiAlCoCrMoTiWTa.set Al Co Ni
#pair_coeff * * Ni99.eam.alloy Ni Ni
# Also not needed because restarted
# --------------------- SETTINGS ---------------------
compute peratom all pe/atom
compute eatoms all reduce sum c_peratom
compute csym all centro/atom fcc
thermo 1
thermo_style custom step pe c_eatoms
#dump 1 all custom 1 dump.relax.1.* id type xs ys zs c_peratom c_csym
run 0
WARNING: No fixes defined, atoms won't move (../verlet.cpp:55)
Neighbor list info ...
  2 neighbor list requests
  update every 1 steps, delay 10 steps, check yes
  max neighbors/atom: 2000, page size: 100000
  master list distance cutoff = 8.56034
  ghost atom cutoff = 8.56034
  binsize = 4.28017 -> bins = 17 17 29
Memory usage per processor = 5.18855 Mbytes
Step PotEng eatoms 
      38   -234482.26   -234482.26 
Loop time of 5.60284e-06 on 6 procs for 0 steps with 53760 atoms

142.8% CPU use with 6 MPI tasks x 1 OpenMP threads

MPI task timing breakdown:
Section |  min time  |  avg time  |  max time  |%varavg| %total
---------------------------------------------------------------
Pair    | 0          | 0          | 0          |   0.0 |  0.00
Neigh   | 0          | 0          | 0          |   0.0 |  0.00
Comm    | 0          | 0          | 0          |   0.0 |  0.00
Output  | 0          | 0          | 0          |   0.0 |  0.00
Modify  | 0          | 0          | 0          |   0.0 |  0.00
Other   |            | 5.603e-06  |            |       |100.00

Nlocal:    8960 ave 9125 max 8849 min
Histogram: 2 1 0 0 1 0 1 0 0 1
Nghost:    12178 ave 14551 max 10965 min
Histogram: 4 0 0 0 0 0 0 0 0 2
Neighs:    976936 ave 1.02163e+06 max 917197 min
Histogram: 1 1 0 0 0 0 1 1 0 2
FullNghs:  0 ave 0 max 0 min
Histogram: 6 0 0 0 0 0 0 0 0 0

Total # of neighbors = 5861616
Ave neighs/atom = 109.033
Neighbor list builds = 0
Dangerous builds = 0
#this command creates a model of the script before the displacement and minimization occur
variable E equal "c_eatoms"
variable Eo equal $E
variable Eo equal -234482.259789123
#variable E equal "c_eatoms" computes the initial energy of the model before any sliding is done
#E is necessary to store the initial energy in Eo
#group bot region 1
#group top region 2
# Groups are preserved after restart
displace_atoms top move ${x_displace} 0.0 0.0 units box
displace_atoms top move -0.599901418087608 0.0 0.0 units box

#displace_atoms is the command neccessary to move atoms into the next stacking arrangement (ie: A -> B)

fix 1 all setforce 0 0 NULL
min_style cg
minimize 1e-10 1e-10 1000 1000
WARNING: Resetting reneighboring criteria during minimization (../min.cpp:168)
Neighbor list info ...
  2 neighbor list requests
  update every 1 steps, delay 0 steps, check yes
  max neighbors/atom: 2000, page size: 100000
  master list distance cutoff = 8.56034
  ghost atom cutoff = 8.56034
  binsize = 4.28017 -> bins = 17 17 29
Memory usage per processor = 7.68855 Mbytes
Step PotEng eatoms 
      38   -234316.97   -234316.97 
      39   -234351.68   -234351.68 
      40   -234366.23   -234366.23 
      41   -234373.91   -234373.91 
      42   -234378.63   -234378.63 
      43    -234381.2    -234381.2 
      44   -234382.37   -234382.37 
      45   -234382.98   -234382.98 
      46   -234383.23   -234383.23 
      47   -234383.56   -234383.56 
      48   -234383.73   -234383.73 
      49   -234383.84   -234383.84 
      50   -234383.96   -234383.96 
      51   -234384.07   -234384.07 
      52   -234384.15   -234384.15 
      53   -234384.21   -234384.21 
      54   -234384.25   -234384.25 
      55   -234384.29   -234384.29 
      56   -234384.32   -234384.32 
      57   -234384.34   -234384.34 
      58   -234384.37   -234384.37 
      59   -234384.39   -234384.39 
      60   -234384.41   -234384.41 
      61   -234384.43   -234384.43 
      62   -234384.44   -234384.44 
      63   -234384.45   -234384.45 
      64   -234384.46   -234384.46 
      65   -234384.47   -234384.47 
      66   -234384.48   -234384.48 
      67   -234384.49   -234384.49 
      68    -234384.5    -234384.5 
      69    -234384.5    -234384.5 
      70   -234384.51   -234384.51 
      71   -234384.51   -234384.51 
      72   -234384.52   -234384.52 
      73   -234384.53   -234384.53 
      74   -234384.53   -234384.53 
      75   -234384.54   -234384.54 
      76   -234384.54   -234384.54 
      77   -234384.55   -234384.55 
      78   -234384.56   -234384.56 
      79   -234384.56   -234384.56 
      80   -234384.57   -234384.57 
      81   -234384.57   -234384.57 
      82   -234384.58   -234384.58 
      83   -234384.59   -234384.59 
      84   -234384.59   -234384.59 
      85   -234384.59   -234384.59 
      86    -234384.6    -234384.6 
      87    -234384.6    -234384.6 
      88    -234384.6    -234384.6 
      89   -234384.61   -234384.61 
      90   -234384.61   -234384.61 
      91   -234384.61   -234384.61 
      92   -234384.62   -234384.62 
      93   -234384.62   -234384.62 
      94   -234384.62   -234384.62 
      95   -234384.62   -234384.62 
      96   -234384.62   -234384.62 
      97   -234384.63   -234384.63 
      98   -234384.63   -234384.63 
      99   -234384.63   -234384.63 
     100   -234384.63   -234384.63 
     101   -234384.63   -234384.63 
     102   -234384.63   -234384.63 
     103   -234384.63   -234384.63 
     104   -234384.64   -234384.64 
     105   -234384.64   -234384.64 
     106   -234384.64   -234384.64 
     107   -234384.64   -234384.64 
     108   -234384.64   -234384.64 
     109   -234384.64   -234384.64 
     110   -234384.64   -234384.64 
     111   -234384.64   -234384.64 
     112   -234384.64   -234384.64 
     113   -234384.64   -234384.64 
     114   -234384.64   -234384.64 
     115   -234384.64   -234384.64 
     116   -234384.64   -234384.64 
     117   -234384.64   -234384.64 
     118   -234384.64   -234384.64 
     119   -234384.64   -234384.64 
     120   -234384.64   -234384.64 
     121   -234384.64   -234384.64 
     122   -234384.64   -234384.64 
     123   -234384.64   -234384.64 
     124   -234384.64   -234384.64 
     125   -234384.64   -234384.64 
     126   -234384.64   -234384.64 
     127   -234384.64   -234384.64 
     128   -234384.64   -234384.64 
     129   -234384.64   -234384.64 
     130   -234384.64   -234384.64 
     131   -234384.64   -234384.64 
     132   -234384.64   -234384.64 
Loop time of 11.5509 on 6 procs for 94 steps with 53760 atoms

99.9% CPU use with 6 MPI tasks x 1 OpenMP threads

Minimization stats:
  Stopping criterion = energy tolerance
  Energy initial, next-to-last, final = 
         -234316.96574     -234384.642517      -234384.64254
  Force two-norm initial, final = 32.1757 0.0176713
  Force max component initial, final = 1.57974 0.00659072
  Final line search alpha, max atom move = 1 0.00659072
  Iterations, force evaluations = 94 183

MPI task timing breakdown:
Section |  min time  |  avg time  |  max time  |%varavg| %total
---------------------------------------------------------------
Pair    | 8.518      | 9.5745     | 10.475     |  23.9 | 82.89
Neigh   | 0          | 0          | 0          |   0.0 |  0.00
Comm    | 0.80876    | 1.7159     | 2.7846     |  56.9 | 14.86
Output  | 0.03643    | 0.036857   | 0.038863   |   0.5 |  0.32
Modify  | 0.012957   | 0.014398   | 0.01622    |   1.0 |  0.12
Other   |            | 0.2093     |            |       |  1.81

Nlocal:    8960 ave 9125 max 8849 min
Histogram: 2 1 0 0 1 0 1 0 0 1
Nghost:    12192 ave 14554 max 10998 min
Histogram: 4 0 0 0 0 0 0 0 0 2
Neighs:    978022 ave 1.02517e+06 max 916936 min
Histogram: 1 1 0 0 0 0 2 0 0 2
FullNghs:  0 ave 0 max 0 min
Histogram: 6 0 0 0 0 0 0 0 0 0

Total # of neighbors = 5868133
Ave neighs/atom = 109.154
Neighbor list builds = 0
Dangerous builds = 0
variable Ef equal "c_eatoms"
variable Cf equal 1.60217657e-16
variable A equal (cella*cellb)*1e-20
variable SFE equal ((${Ef}-${Eo})*${Cf})/${A}
variable SFE equal ((-234384.64253983-${Eo})*${Cf})/${A}
variable SFE equal ((-234384.64253983--234482.259789123)*${Cf})/${A}
variable SFE equal ((-234384.64253983--234482.259789123)*1.60217657e-16)/${A}
variable SFE equal ((-234384.64253983--234482.259789123)*1.60217657e-16)/4.89275170426208e-17

#variable Ef equal "c_eatoms" computes the final energy of the system after sliding is done
#variable A is the area of the Stacking fault plane
#variable Cf is the conversion factor of electro volts to millijoules
#variable SFE is the stacking-fault energy of the system
####################################
# SIMULATION DONE
print "All done"
All done
print "Initial energy of atoms = ${Eo} eV"
Initial energy of atoms = -234482.259789123 eV
print "Final energy of atoms = ${Ef} eV"
Final energy of atoms = -234384.64253983 eV
print "Stacking-fault energy = ${SFE} mJ/m^2"
Stacking-fault energy = 319.656665816168 mJ/m^2
Total wall time: 0:00:11
