LAMMPS (17 Nov 2015)
WARNING: OMP_NUM_THREADS environment is not set. (../comm.cpp:90)
  using 1 OpenMP thread(s) per MPI task
# Input file for Stack Fault Energy surface of Nickel: originally Richard Glaze, 2014
# Modified Dec 2019 for generalised stacking faults

# --------------------- INITIALIZAITION ---------------------
read_restart ../../init/restart.opt
  orthogonal box = (-0.305467 -0.308632 -0.539994) to (69.2831 70.0011 122.476)
  1 by 2 by 3 MPI processor grid
  53760 atoms

change_box all boundary p p s
variable sca equal 16
variable scb equal 28
variable scc equal 10
variable latparam1 equal 3.52
variable x_displace equal -0.8998521271314123
variable xdim equal ${latparam1}*sqrt(6)/2*${sca}
variable xdim equal 3.52*sqrt(6)/2*${sca}
variable xdim equal 3.52*sqrt(6)/2*16
variable ydim equal ${latparam1}*sqrt(2)/2*${scb}
variable ydim equal 3.52*sqrt(2)/2*${scb}
variable ydim equal 3.52*sqrt(2)/2*28
variable zmid equal ${latparam1}*sqrt(3)*${scc}
variable zmid equal 3.52*sqrt(3)*${scc}
variable zmid equal 3.52*sqrt(3)*10
variable ztop equal ${zmid}*2
variable ztop equal 60.9681884264245*2
# --------------------- ATOM DEFINITION ---------------------
# Not needed because restarted
# --------------------- FORCE FIELDS ---------------------
pair_style eam/alloy
pair_coeff * * ../../../NiAlCoCrMoTiWTa.set Al Co Ni
#pair_coeff * * Ni99.eam.alloy Ni Ni
# Also not needed because restarted
# --------------------- SETTINGS ---------------------
compute peratom all pe/atom
compute eatoms all reduce sum c_peratom
compute csym all centro/atom fcc
thermo 1
thermo_style custom step pe c_eatoms
#dump 1 all custom 1 dump.relax.1.* id type xs ys zs c_peratom c_csym
run 0
WARNING: No fixes defined, atoms won't move (../verlet.cpp:55)
Neighbor list info ...
  2 neighbor list requests
  update every 1 steps, delay 10 steps, check yes
  max neighbors/atom: 2000, page size: 100000
  master list distance cutoff = 8.56034
  ghost atom cutoff = 8.56034
  binsize = 4.28017 -> bins = 17 17 29
Memory usage per processor = 5.18855 Mbytes
Step PotEng eatoms 
      38   -234482.26   -234482.26 
Loop time of 3.41733e-06 on 6 procs for 0 steps with 53760 atoms

165.8% CPU use with 6 MPI tasks x 1 OpenMP threads

MPI task timing breakdown:
Section |  min time  |  avg time  |  max time  |%varavg| %total
---------------------------------------------------------------
Pair    | 0          | 0          | 0          |   0.0 |  0.00
Neigh   | 0          | 0          | 0          |   0.0 |  0.00
Comm    | 0          | 0          | 0          |   0.0 |  0.00
Output  | 0          | 0          | 0          |   0.0 |  0.00
Modify  | 0          | 0          | 0          |   0.0 |  0.00
Other   |            | 3.417e-06  |            |       |100.00

Nlocal:    8960 ave 9125 max 8849 min
Histogram: 2 1 0 0 1 0 1 0 0 1
Nghost:    12178 ave 14551 max 10965 min
Histogram: 4 0 0 0 0 0 0 0 0 2
Neighs:    976936 ave 1.02163e+06 max 917197 min
Histogram: 1 1 0 0 0 0 1 1 0 2
FullNghs:  0 ave 0 max 0 min
Histogram: 6 0 0 0 0 0 0 0 0 0

Total # of neighbors = 5861616
Ave neighs/atom = 109.033
Neighbor list builds = 0
Dangerous builds = 0
#this command creates a model of the script before the displacement and minimization occur
variable E equal "c_eatoms"
variable Eo equal $E
variable Eo equal -234482.259789123
#variable E equal "c_eatoms" computes the initial energy of the model before any sliding is done
#E is necessary to store the initial energy in Eo
#group bot region 1
#group top region 2
# Groups are preserved after restart
displace_atoms top move ${x_displace} 0.0 0.0 units box
displace_atoms top move -0.899852127131412 0.0 0.0 units box

#displace_atoms is the command neccessary to move atoms into the next stacking arrangement (ie: A -> B)

fix 1 all setforce 0 0 NULL
min_style cg
minimize 1e-10 1e-10 1000 1000
WARNING: Resetting reneighboring criteria during minimization (../min.cpp:168)
Neighbor list info ...
  2 neighbor list requests
  update every 1 steps, delay 0 steps, check yes
  max neighbors/atom: 2000, page size: 100000
  master list distance cutoff = 8.56034
  ghost atom cutoff = 8.56034
  binsize = 4.28017 -> bins = 17 17 29
Memory usage per processor = 7.68855 Mbytes
Step PotEng eatoms 
      38   -234204.33   -234204.33 
      39   -234276.44   -234276.44 
      40   -234297.98   -234297.98 
      41    -234308.5    -234308.5 
      42   -234314.67   -234314.67 
      43      -234320      -234320 
      44   -234321.08   -234321.08 
      45   -234322.84   -234322.84 
      46   -234323.48   -234323.48 
      47   -234323.81   -234323.81 
      48   -234324.23   -234324.23 
      49   -234324.44   -234324.44 
      50   -234324.59   -234324.59 
      51    -234324.7    -234324.7 
      52    -234324.8    -234324.8 
      53    -234324.9    -234324.9 
      54   -234324.96   -234324.96 
      55      -234325      -234325 
      56   -234325.04   -234325.04 
      57   -234325.08   -234325.08 
      58   -234325.11   -234325.11 
      59   -234325.13   -234325.13 
      60   -234325.15   -234325.15 
      61   -234325.17   -234325.17 
      62   -234325.19   -234325.19 
      63   -234325.21   -234325.21 
      64   -234325.22   -234325.22 
      65   -234325.24   -234325.24 
      66   -234325.25   -234325.25 
      67   -234325.26   -234325.26 
      68   -234325.27   -234325.27 
      69   -234325.28   -234325.28 
      70   -234325.29   -234325.29 
      71    -234325.3    -234325.3 
      72   -234325.31   -234325.31 
      73   -234325.31   -234325.31 
      74   -234325.32   -234325.32 
      75   -234325.33   -234325.33 
      76   -234325.33   -234325.33 
      77   -234325.34   -234325.34 
      78   -234325.35   -234325.35 
      79   -234325.35   -234325.35 
      80   -234325.36   -234325.36 
      81   -234325.37   -234325.37 
      82   -234325.38   -234325.38 
      83   -234325.39   -234325.39 
      84   -234325.39   -234325.39 
      85    -234325.4    -234325.4 
      86   -234325.41   -234325.41 
      87   -234325.41   -234325.41 
      88   -234325.42   -234325.42 
      89   -234325.42   -234325.42 
      90   -234325.43   -234325.43 
      91   -234325.43   -234325.43 
      92   -234325.43   -234325.43 
      93   -234325.44   -234325.44 
      94   -234325.44   -234325.44 
      95   -234325.44   -234325.44 
      96   -234325.45   -234325.45 
      97   -234325.45   -234325.45 
      98   -234325.45   -234325.45 
      99   -234325.45   -234325.45 
     100   -234325.46   -234325.46 
     101   -234325.46   -234325.46 
     102   -234325.46   -234325.46 
     103   -234325.46   -234325.46 
     104   -234325.46   -234325.46 
     105   -234325.47   -234325.47 
     106   -234325.47   -234325.47 
     107   -234325.47   -234325.47 
     108   -234325.47   -234325.47 
     109   -234325.47   -234325.47 
     110   -234325.47   -234325.47 
     111   -234325.47   -234325.47 
     112   -234325.47   -234325.47 
     113   -234325.47   -234325.47 
     114   -234325.47   -234325.47 
     115   -234325.47   -234325.47 
     116   -234325.48   -234325.48 
     117   -234325.48   -234325.48 
     118   -234325.48   -234325.48 
     119   -234325.48   -234325.48 
     120   -234325.48   -234325.48 
     121   -234325.48   -234325.48 
     122   -234325.48   -234325.48 
     123   -234325.48   -234325.48 
     124   -234325.48   -234325.48 
     125   -234325.48   -234325.48 
     126   -234325.48   -234325.48 
     127   -234325.48   -234325.48 
     128   -234325.48   -234325.48 
     129   -234325.48   -234325.48 
     130   -234325.48   -234325.48 
     131   -234325.48   -234325.48 
     132   -234325.48   -234325.48 
     133   -234325.48   -234325.48 
     134   -234325.48   -234325.48 
     135   -234325.48   -234325.48 
     136   -234325.48   -234325.48 
Loop time of 11.7286 on 6 procs for 98 steps with 53760 atoms

99.9% CPU use with 6 MPI tasks x 1 OpenMP threads

Minimization stats:
  Stopping criterion = energy tolerance
  Energy initial, next-to-last, final = 
        -234204.329496      -234325.47725     -234325.477273
  Force two-norm initial, final = 59.7065 0.0172045
  Force max component initial, final = 2.86579 0.00309848
  Final line search alpha, max atom move = 1 0.00309848
  Iterations, force evaluations = 98 190

MPI task timing breakdown:
Section |  min time  |  avg time  |  max time  |%varavg| %total
---------------------------------------------------------------
Pair    | 9.5004     | 10.022     | 10.265     |   8.3 | 85.45
Neigh   | 0          | 0          | 0          |   0.0 |  0.00
Comm    | 1.1877     | 1.4353     | 1.9597     |  22.2 | 12.24
Output  | 0.038215   | 0.038668   | 0.040771   |   0.5 |  0.33
Modify  | 0.013907   | 0.015231   | 0.017149   |   1.1 |  0.13
Other   |            | 0.2178     |            |       |  1.86

Nlocal:    8960 ave 9125 max 8849 min
Histogram: 2 1 0 0 1 0 1 0 0 1
Nghost:    12258 ave 14631 max 11009 min
Histogram: 4 0 0 0 0 0 0 0 0 2
Neighs:    978915 ave 1.02757e+06 max 917145 min
Histogram: 1 1 0 0 0 0 2 0 0 2
FullNghs:  0 ave 0 max 0 min
Histogram: 6 0 0 0 0 0 0 0 0 0

Total # of neighbors = 5873488
Ave neighs/atom = 109.254
Neighbor list builds = 0
Dangerous builds = 0
variable Ef equal "c_eatoms"
variable Cf equal 1.60217657e-16
variable A equal (cella*cellb)*1e-20
variable SFE equal ((${Ef}-${Eo})*${Cf})/${A}
variable SFE equal ((-234325.477273005-${Eo})*${Cf})/${A}
variable SFE equal ((-234325.477273005--234482.259789123)*${Cf})/${A}
variable SFE equal ((-234325.477273005--234482.259789123)*1.60217657e-16)/${A}
variable SFE equal ((-234325.477273005--234482.259789123)*1.60217657e-16)/4.89275170426208e-17

#variable Ef equal "c_eatoms" computes the final energy of the system after sliding is done
#variable A is the area of the Stacking fault plane
#variable Cf is the conversion factor of electro volts to millijoules
#variable SFE is the stacking-fault energy of the system
####################################
# SIMULATION DONE
print "All done"
All done
print "Initial energy of atoms = ${Eo} eV"
Initial energy of atoms = -234482.259789123 eV
print "Final energy of atoms = ${Ef} eV"
Final energy of atoms = -234325.477273005 eV
print "Stacking-fault energy = ${SFE} mJ/m^2"
Stacking-fault energy = 513.398776584313 mJ/m^2
Total wall time: 0:00:12
