LAMMPS (17 Nov 2015)
WARNING: OMP_NUM_THREADS environment is not set. (../comm.cpp:90)
  using 1 OpenMP thread(s) per MPI task
# Input file for Stack Fault Energy surface of Nickel: originally Richard Glaze, 2014
# Modified Dec 2019 for generalised stacking faults

# --------------------- INITIALIZAITION ---------------------
read_restart ../../init/restart.opt
  orthogonal box = (0.00367712 0.00371523 0.0065003) to (68.974 69.6887 121.93)
  1 by 2 by 3 MPI processor grid
  53760 atoms

change_box all boundary p p s
variable sca equal 16
variable scb equal 28
variable scc equal 10
variable latparam1 equal 3.52
variable x_displace equal -2.0809997344165874
variable xdim equal ${latparam1}*sqrt(6)/2*${sca}
variable xdim equal 3.52*sqrt(6)/2*${sca}
variable xdim equal 3.52*sqrt(6)/2*16
variable ydim equal ${latparam1}*sqrt(2)/2*${scb}
variable ydim equal 3.52*sqrt(2)/2*${scb}
variable ydim equal 3.52*sqrt(2)/2*28
variable zmid equal ${latparam1}*sqrt(3)*${scc}
variable zmid equal 3.52*sqrt(3)*${scc}
variable zmid equal 3.52*sqrt(3)*10
variable ztop equal ${zmid}*2
variable ztop equal 60.9681884264245*2
# --------------------- ATOM DEFINITION ---------------------
# Not needed because restarted
# --------------------- FORCE FIELDS ---------------------
pair_style eam/alloy
pair_coeff * * ../../../NiAlCoCrMoTiWTa.set Ni Ni
#pair_coeff * * Ni99.eam.alloy Ni Ni
# Also not needed because restarted
# --------------------- SETTINGS ---------------------
compute peratom all pe/atom
compute eatoms all reduce sum c_peratom
compute csym all centro/atom fcc
thermo 1
thermo_style custom step pe c_eatoms
#dump 1 all custom 1 dump.relax.1.* id type xs ys zs c_peratom c_csym
run 0
WARNING: No fixes defined, atoms won't move (../verlet.cpp:55)
Neighbor list info ...
  2 neighbor list requests
  update every 1 steps, delay 10 steps, check yes
  max neighbors/atom: 2000, page size: 100000
  master list distance cutoff = 8.56034
  ghost atom cutoff = 8.56034
  binsize = 4.28017 -> bins = 17 17 29
Memory usage per processor = 5.21199 Mbytes
Step PotEng eatoms 
       2   -238159.28   -238159.28 
Loop time of 5.28495e-06 on 6 procs for 0 steps with 53760 atoms

126.1% CPU use with 6 MPI tasks x 1 OpenMP threads

MPI task timing breakdown:
Section |  min time  |  avg time  |  max time  |%varavg| %total
---------------------------------------------------------------
Pair    | 0          | 0          | 0          |   0.0 |  0.00
Neigh   | 0          | 0          | 0          |   0.0 |  0.00
Comm    | 0          | 0          | 0          |   0.0 |  0.00
Output  | 0          | 0          | 0          |   0.0 |  0.00
Modify  | 0          | 0          | 0          |   0.0 |  0.00
Other   |            | 5.285e-06  |            |       |100.00

Nlocal:    8960 ave 8960 max 8960 min
Histogram: 6 0 0 0 0 0 0 0 0 0
Nghost:    11638.3 ave 13811 max 10552 min
Histogram: 4 0 0 0 0 0 0 0 0 2
Neighs:    977984 ave 1.00355e+06 max 941536 min
Histogram: 2 0 0 0 0 0 0 2 0 2
FullNghs:  0 ave 0 max 0 min
Histogram: 6 0 0 0 0 0 0 0 0 0

Total # of neighbors = 5867904
Ave neighs/atom = 109.15
Neighbor list builds = 0
Dangerous builds = 0
#this command creates a model of the script before the displacement and minimization occur
variable E equal "c_eatoms"
variable Eo equal $E
variable Eo equal -238159.276198223
#variable E equal "c_eatoms" computes the initial energy of the model before any sliding is done
#E is necessary to store the initial energy in Eo
#group bot region 1
#group top region 2
# Groups are preserved after restart
displace_atoms top move ${x_displace} 0.0 0.0 units box
displace_atoms top move -2.08099973441659 0.0 0.0 units box

#displace_atoms is the command neccessary to move atoms into the next stacking arrangement (ie: A -> B)

fix 1 all setforce 0 0 NULL
min_style cg
minimize 1e-10 1e-10 1000 1000
WARNING: Resetting reneighboring criteria during minimization (../min.cpp:168)
Neighbor list info ...
  2 neighbor list requests
  update every 1 steps, delay 0 steps, check yes
  max neighbors/atom: 2000, page size: 100000
  master list distance cutoff = 8.56034
  ghost atom cutoff = 8.56034
  binsize = 4.28017 -> bins = 17 17 29
Memory usage per processor = 7.71199 Mbytes
Step PotEng eatoms 
       2   -237912.11   -237912.11 
       3    -237955.4    -237955.4 
       4   -237964.68   -237964.68 
       5   -237968.57   -237968.57 
       6    -237971.1    -237971.1 
       7    -237973.1    -237973.1 
       8   -237974.12   -237974.12 
       9   -237974.99   -237974.99 
      10   -237975.74   -237975.74 
      11   -237976.22   -237976.22 
      12   -237976.66   -237976.66 
      13   -237977.04   -237977.04 
      14   -237977.32   -237977.32 
      15   -237977.58   -237977.58 
      16   -237977.81   -237977.81 
      17   -237977.99   -237977.99 
      18   -237978.16   -237978.16 
      19   -237978.32   -237978.32 
      20   -237978.45   -237978.45 
      21   -237978.58   -237978.58 
      22   -237978.69   -237978.69 
      23   -237978.79   -237978.79 
      24   -237978.89   -237978.89 
      25   -237978.97   -237978.97 
      26   -237979.05   -237979.05 
      27   -237979.12   -237979.12 
      28   -237979.18   -237979.18 
      29   -237979.25   -237979.25 
      30    -237979.3    -237979.3 
      31   -237979.36   -237979.36 
      32   -237979.42   -237979.42 
      33   -237979.55   -237979.55 
      34    -237979.7    -237979.7 
      35   -237979.98   -237979.98 
      36   -237980.24   -237980.24 
      37   -237980.42   -237980.42 
      38   -237980.55   -237980.55 
      39   -237980.64   -237980.64 
      40   -237980.71   -237980.71 
      41   -237980.75   -237980.75 
      42   -237980.78   -237980.78 
      43    -237980.8    -237980.8 
      44   -237980.82   -237980.82 
      45   -237980.83   -237980.83 
      46   -237980.84   -237980.84 
      47   -237980.85   -237980.85 
      48   -237980.85   -237980.85 
      49   -237980.86   -237980.86 
      50   -237980.86   -237980.86 
      51   -237980.86   -237980.86 
      52   -237980.86   -237980.86 
      53   -237980.87   -237980.87 
      54   -237980.87   -237980.87 
      55   -237980.87   -237980.87 
      56   -237980.87   -237980.87 
      57   -237980.87   -237980.87 
      58   -237980.87   -237980.87 
      59   -237980.87   -237980.87 
      60   -237980.87   -237980.87 
      61   -237980.87   -237980.87 
      62   -237980.88   -237980.88 
      63   -237980.88   -237980.88 
      64   -237980.88   -237980.88 
      65   -237980.88   -237980.88 
      66   -237980.88   -237980.88 
      67   -237980.88   -237980.88 
      68   -237980.88   -237980.88 
      69   -237980.88   -237980.88 
      70   -237980.88   -237980.88 
      71   -237980.88   -237980.88 
      72   -237980.88   -237980.88 
      73   -237980.88   -237980.88 
Loop time of 7.33937 on 6 procs for 71 steps with 53760 atoms

100.0% CPU use with 6 MPI tasks x 1 OpenMP threads

Minimization stats:
  Stopping criterion = energy tolerance
  Energy initial, next-to-last, final = 
        -237912.113012     -237980.880433     -237980.880446
  Force two-norm initial, final = 44.0549 0.0128368
  Force max component initial, final = 1.03876 0.000119762
  Final line search alpha, max atom move = 1 0.000119762
  Iterations, force evaluations = 71 142

MPI task timing breakdown:
Section |  min time  |  avg time  |  max time  |%varavg| %total
---------------------------------------------------------------
Pair    | 5.3821     | 5.9536     | 7.035      |  27.3 | 81.12
Neigh   | 0          | 0          | 0          |   0.0 |  0.00
Comm    | 0.10014    | 1.1919     | 1.7742     |  61.6 | 16.24
Output  | 0.02686    | 0.027183   | 0.028523   |   0.4 |  0.37
Modify  | 0.0094991  | 0.010985   | 0.012862   |   1.2 |  0.15
Other   |            | 0.1557     |            |       |  2.12

Nlocal:    8960 ave 8960 max 8960 min
Histogram: 6 0 0 0 0 0 0 0 0 0
Nghost:    11722.3 ave 13895 max 10552 min
Histogram: 4 0 0 0 0 0 0 0 0 2
Neighs:    982016 ave 1.01562e+06 max 941568 min
Histogram: 2 0 0 0 0 0 2 0 0 2
FullNghs:  0 ave 0 max 0 min
Histogram: 6 0 0 0 0 0 0 0 0 0

Total # of neighbors = 5892096
Ave neighs/atom = 109.6
Neighbor list builds = 0
Dangerous builds = 0
variable Ef equal "c_eatoms"
variable Cf equal 1.60217657e-16
variable A equal (cella*cellb)*1e-20
variable SFE equal ((${Ef}-${Eo})*${Cf})/${A}
variable SFE equal ((-237980.880445497-${Eo})*${Cf})/${A}
variable SFE equal ((-237980.880445497--238159.276198223)*${Cf})/${A}
variable SFE equal ((-237980.880445497--238159.276198223)*1.60217657e-16)/${A}
variable SFE equal ((-237980.880445497--238159.276198223)*1.60217657e-16)/4.80619470511564e-17

#variable Ef equal "c_eatoms" computes the final energy of the system after sliding is done
#variable A is the area of the Stacking fault plane
#variable Cf is the conversion factor of electro volts to millijoules
#variable SFE is the stacking-fault energy of the system
####################################
# SIMULATION DONE
print "All done"
All done
print "Initial energy of atoms = ${Eo} eV"
Initial energy of atoms = -238159.276198223 eV
print "Final energy of atoms = ${Ef} eV"
Final energy of atoms = -237980.880445497 eV
print "Stacking-fault energy = ${SFE} mJ/m^2"
Stacking-fault energy = 594.693957989045 mJ/m^2
Total wall time: 0:00:07
