LAMMPS (17 Nov 2015)
WARNING: OMP_NUM_THREADS environment is not set. (../comm.cpp:90)
  using 1 OpenMP thread(s) per MPI task
# Input file for Stack Fault Energy surface of Nickel: originally Richard Glaze, 2014
# Modified Dec 2019 for generalised stacking faults

# --------------------- INITIALIZAITION ---------------------
read_restart ../../init/restart.opt
  orthogonal box = (-0.305467 -0.308632 -0.539994) to (69.2831 70.0011 122.476)
  1 by 2 by 3 MPI processor grid
  53760 atoms

change_box all boundary p p s
variable sca equal 16
variable scb equal 28
variable scc equal 10
variable latparam1 equal 3.52
variable x_displace equal -0.6748890953485592
variable xdim equal ${latparam1}*sqrt(6)/2*${sca}
variable xdim equal 3.52*sqrt(6)/2*${sca}
variable xdim equal 3.52*sqrt(6)/2*16
variable ydim equal ${latparam1}*sqrt(2)/2*${scb}
variable ydim equal 3.52*sqrt(2)/2*${scb}
variable ydim equal 3.52*sqrt(2)/2*28
variable zmid equal ${latparam1}*sqrt(3)*${scc}
variable zmid equal 3.52*sqrt(3)*${scc}
variable zmid equal 3.52*sqrt(3)*10
variable ztop equal ${zmid}*2
variable ztop equal 60.9681884264245*2
# --------------------- ATOM DEFINITION ---------------------
# Not needed because restarted
# --------------------- FORCE FIELDS ---------------------
pair_style eam/alloy
pair_coeff * * ../../../NiAlCoCrMoTiWTa.set Al Co Ni
#pair_coeff * * Ni99.eam.alloy Ni Ni
# Also not needed because restarted
# --------------------- SETTINGS ---------------------
compute peratom all pe/atom
compute eatoms all reduce sum c_peratom
compute csym all centro/atom fcc
thermo 1
thermo_style custom step pe c_eatoms
#dump 1 all custom 1 dump.relax.1.* id type xs ys zs c_peratom c_csym
run 0
WARNING: No fixes defined, atoms won't move (../verlet.cpp:55)
Neighbor list info ...
  2 neighbor list requests
  update every 1 steps, delay 10 steps, check yes
  max neighbors/atom: 2000, page size: 100000
  master list distance cutoff = 8.56034
  ghost atom cutoff = 8.56034
  binsize = 4.28017 -> bins = 17 17 29
Memory usage per processor = 5.18855 Mbytes
Step PotEng eatoms 
      38   -234482.26   -234482.26 
Loop time of 3.89417e-06 on 6 procs for 0 steps with 53760 atoms

137.0% CPU use with 6 MPI tasks x 1 OpenMP threads

MPI task timing breakdown:
Section |  min time  |  avg time  |  max time  |%varavg| %total
---------------------------------------------------------------
Pair    | 0          | 0          | 0          |   0.0 |  0.00
Neigh   | 0          | 0          | 0          |   0.0 |  0.00
Comm    | 0          | 0          | 0          |   0.0 |  0.00
Output  | 0          | 0          | 0          |   0.0 |  0.00
Modify  | 0          | 0          | 0          |   0.0 |  0.00
Other   |            | 3.894e-06  |            |       |100.00

Nlocal:    8960 ave 9125 max 8849 min
Histogram: 2 1 0 0 1 0 1 0 0 1
Nghost:    12178 ave 14551 max 10965 min
Histogram: 4 0 0 0 0 0 0 0 0 2
Neighs:    976936 ave 1.02163e+06 max 917197 min
Histogram: 1 1 0 0 0 0 1 1 0 2
FullNghs:  0 ave 0 max 0 min
Histogram: 6 0 0 0 0 0 0 0 0 0

Total # of neighbors = 5861616
Ave neighs/atom = 109.033
Neighbor list builds = 0
Dangerous builds = 0
#this command creates a model of the script before the displacement and minimization occur
variable E equal "c_eatoms"
variable Eo equal $E
variable Eo equal -234482.259789123
#variable E equal "c_eatoms" computes the initial energy of the model before any sliding is done
#E is necessary to store the initial energy in Eo
#group bot region 1
#group top region 2
# Groups are preserved after restart
displace_atoms top move ${x_displace} 0.0 0.0 units box
displace_atoms top move -0.674889095348559 0.0 0.0 units box

#displace_atoms is the command neccessary to move atoms into the next stacking arrangement (ie: A -> B)

fix 1 all setforce 0 0 NULL
min_style cg
minimize 1e-10 1e-10 1000 1000
WARNING: Resetting reneighboring criteria during minimization (../min.cpp:168)
Neighbor list info ...
  2 neighbor list requests
  update every 1 steps, delay 0 steps, check yes
  max neighbors/atom: 2000, page size: 100000
  master list distance cutoff = 8.56034
  ghost atom cutoff = 8.56034
  binsize = 4.28017 -> bins = 17 17 29
Memory usage per processor = 7.68855 Mbytes
Step PotEng eatoms 
      38   -234286.76   -234286.76 
      39   -234329.28   -234329.28 
      40   -234344.88   -234344.88 
      41   -234353.53   -234353.53 
      42   -234358.94   -234358.94 
      43   -234361.98   -234361.98 
      44   -234363.17   -234363.17 
      45   -234364.06   -234364.06 
      46   -234364.32   -234364.32 
      47    -234364.6    -234364.6 
      48   -234364.79   -234364.79 
      49   -234364.95   -234364.95 
      50   -234365.07   -234365.07 
      51   -234365.21   -234365.21 
      52   -234365.32   -234365.32 
      53   -234365.38   -234365.38 
      54   -234365.42   -234365.42 
      55   -234365.45   -234365.45 
      56   -234365.49   -234365.49 
      57   -234365.52   -234365.52 
      58   -234365.55   -234365.55 
      59   -234365.58   -234365.58 
      60    -234365.6    -234365.6 
      61   -234365.61   -234365.61 
      62   -234365.63   -234365.63 
      63   -234365.64   -234365.64 
      64   -234365.65   -234365.65 
      65   -234365.67   -234365.67 
      66   -234365.68   -234365.68 
      67   -234365.69   -234365.69 
      68    -234365.7    -234365.7 
      69    -234365.7    -234365.7 
      70   -234365.71   -234365.71 
      71   -234365.72   -234365.72 
      72   -234365.72   -234365.72 
      73   -234365.73   -234365.73 
      74   -234365.74   -234365.74 
      75   -234365.74   -234365.74 
      76   -234365.75   -234365.75 
      77   -234365.76   -234365.76 
      78   -234365.76   -234365.76 
      79   -234365.77   -234365.77 
      80   -234365.78   -234365.78 
      81   -234365.79   -234365.79 
      82   -234365.79   -234365.79 
      83    -234365.8    -234365.8 
      84    -234365.8    -234365.8 
      85   -234365.81   -234365.81 
      86   -234365.81   -234365.81 
      87   -234365.82   -234365.82 
      88   -234365.82   -234365.82 
      89   -234365.83   -234365.83 
      90   -234365.83   -234365.83 
      91   -234365.83   -234365.83 
      92   -234365.84   -234365.84 
      93   -234365.84   -234365.84 
      94   -234365.84   -234365.84 
      95   -234365.84   -234365.84 
      96   -234365.85   -234365.85 
      97   -234365.85   -234365.85 
      98   -234365.85   -234365.85 
      99   -234365.85   -234365.85 
     100   -234365.85   -234365.85 
     101   -234365.86   -234365.86 
     102   -234365.86   -234365.86 
     103   -234365.86   -234365.86 
     104   -234365.86   -234365.86 
     105   -234365.86   -234365.86 
     106   -234365.86   -234365.86 
     107   -234365.86   -234365.86 
     108   -234365.86   -234365.86 
     109   -234365.87   -234365.87 
     110   -234365.87   -234365.87 
     111   -234365.87   -234365.87 
     112   -234365.87   -234365.87 
     113   -234365.87   -234365.87 
     114   -234365.87   -234365.87 
     115   -234365.87   -234365.87 
     116   -234365.87   -234365.87 
     117   -234365.87   -234365.87 
     118   -234365.87   -234365.87 
     119   -234365.87   -234365.87 
     120   -234365.87   -234365.87 
     121   -234365.87   -234365.87 
     122   -234365.87   -234365.87 
     123   -234365.87   -234365.87 
     124   -234365.87   -234365.87 
     125   -234365.87   -234365.87 
     126   -234365.87   -234365.87 
     127   -234365.87   -234365.87 
     128   -234365.87   -234365.87 
     129   -234365.87   -234365.87 
     130   -234365.87   -234365.87 
     131   -234365.87   -234365.87 
     132   -234365.87   -234365.87 
     133   -234365.87   -234365.87 
Loop time of 11.0424 on 6 procs for 95 steps with 53760 atoms

100.0% CPU use with 6 MPI tasks x 1 OpenMP threads

Minimization stats:
  Stopping criterion = energy tolerance
  Energy initial, next-to-last, final = 
        -234286.757025     -234365.869009     -234365.869032
  Force two-norm initial, final = 38.1693 0.0171061
  Force max component initial, final = 1.80117 0.00529397
  Final line search alpha, max atom move = 1 0.00529397
  Iterations, force evaluations = 95 184

MPI task timing breakdown:
Section |  min time  |  avg time  |  max time  |%varavg| %total
---------------------------------------------------------------
Pair    | 8.7229     | 9.2348     | 9.8382     |  13.3 | 83.63
Neigh   | 0          | 0          | 0          |   0.0 |  0.00
Comm    | 0.94372    | 1.5526     | 2.0663     |  32.7 | 14.06
Output  | 0.035611   | 0.036011   | 0.03787    |   0.4 |  0.33
Modify  | 0.012986   | 0.014203   | 0.016056   |   1.1 |  0.13
Other   |            | 0.2047     |            |       |  1.85

Nlocal:    8960 ave 9125 max 8849 min
Histogram: 2 1 0 0 1 0 1 0 0 1
Nghost:    12175.3 ave 14535 max 10973 min
Histogram: 4 0 0 0 0 0 0 0 0 2
Neighs:    978478 ave 1.02678e+06 max 916731 min
Histogram: 1 1 0 0 0 0 2 0 0 2
FullNghs:  0 ave 0 max 0 min
Histogram: 6 0 0 0 0 0 0 0 0 0

Total # of neighbors = 5870865
Ave neighs/atom = 109.205
Neighbor list builds = 0
Dangerous builds = 0
variable Ef equal "c_eatoms"
variable Cf equal 1.60217657e-16
variable A equal (cella*cellb)*1e-20
variable SFE equal ((${Ef}-${Eo})*${Cf})/${A}
variable SFE equal ((-234365.869032155-${Eo})*${Cf})/${A}
variable SFE equal ((-234365.869032155--234482.259789123)*${Cf})/${A}
variable SFE equal ((-234365.869032155--234482.259789123)*1.60217657e-16)/${A}
variable SFE equal ((-234365.869032155--234482.259789123)*1.60217657e-16)/4.89275170426208e-17

#variable Ef equal "c_eatoms" computes the final energy of the system after sliding is done
#variable A is the area of the Stacking fault plane
#variable Cf is the conversion factor of electro volts to millijoules
#variable SFE is the stacking-fault energy of the system
####################################
# SIMULATION DONE
print "All done"
All done
print "Initial energy of atoms = ${Eo} eV"
Initial energy of atoms = -234482.259789123 eV
print "Final energy of atoms = ${Ef} eV"
Final energy of atoms = -234365.869032155 eV
print "Stacking-fault energy = ${SFE} mJ/m^2"
Stacking-fault energy = 381.132244287513 mJ/m^2
Total wall time: 0:00:11
