LAMMPS (17 Nov 2015)
WARNING: OMP_NUM_THREADS environment is not set. (../comm.cpp:90)
  using 1 OpenMP thread(s) per MPI task
# Input file for Stack Fault Energy surface of Nickel: originally Richard Glaze, 2014
# Modified Dec 2019 for generalised stacking faults

# --------------------- INITIALIZAITION ---------------------
read_restart ../../init/restart.opt
  orthogonal box = (0.00367712 0.00371523 0.0065003) to (68.974 69.6887 121.93)
  1 by 2 by 3 MPI processor grid
  53760 atoms

change_box all boundary p p s
variable sca equal 16
variable scb equal 28
variable scc equal 10
variable latparam1 equal 3.52
variable x_displace equal -0.5945713526904538
variable xdim equal ${latparam1}*sqrt(6)/2*${sca}
variable xdim equal 3.52*sqrt(6)/2*${sca}
variable xdim equal 3.52*sqrt(6)/2*16
variable ydim equal ${latparam1}*sqrt(2)/2*${scb}
variable ydim equal 3.52*sqrt(2)/2*${scb}
variable ydim equal 3.52*sqrt(2)/2*28
variable zmid equal ${latparam1}*sqrt(3)*${scc}
variable zmid equal 3.52*sqrt(3)*${scc}
variable zmid equal 3.52*sqrt(3)*10
variable ztop equal ${zmid}*2
variable ztop equal 60.9681884264245*2
# --------------------- ATOM DEFINITION ---------------------
# Not needed because restarted
# --------------------- FORCE FIELDS ---------------------
pair_style eam/alloy
pair_coeff * * ../../../NiAlCoCrMoTiWTa.set Ni Ni
#pair_coeff * * Ni99.eam.alloy Ni Ni
# Also not needed because restarted
# --------------------- SETTINGS ---------------------
compute peratom all pe/atom
compute eatoms all reduce sum c_peratom
compute csym all centro/atom fcc
thermo 1
thermo_style custom step pe c_eatoms
#dump 1 all custom 1 dump.relax.1.* id type xs ys zs c_peratom c_csym
run 0
WARNING: No fixes defined, atoms won't move (../verlet.cpp:55)
Neighbor list info ...
  2 neighbor list requests
  update every 1 steps, delay 10 steps, check yes
  max neighbors/atom: 2000, page size: 100000
  master list distance cutoff = 8.56034
  ghost atom cutoff = 8.56034
  binsize = 4.28017 -> bins = 17 17 29
Memory usage per processor = 5.21199 Mbytes
Step PotEng eatoms 
       2   -238159.28   -238159.28 
Loop time of 3.01997e-06 on 6 procs for 0 steps with 53760 atoms

149.0% CPU use with 6 MPI tasks x 1 OpenMP threads

MPI task timing breakdown:
Section |  min time  |  avg time  |  max time  |%varavg| %total
---------------------------------------------------------------
Pair    | 0          | 0          | 0          |   0.0 |  0.00
Neigh   | 0          | 0          | 0          |   0.0 |  0.00
Comm    | 0          | 0          | 0          |   0.0 |  0.00
Output  | 0          | 0          | 0          |   0.0 |  0.00
Modify  | 0          | 0          | 0          |   0.0 |  0.00
Other   |            | 3.02e-06   |            |       |100.00

Nlocal:    8960 ave 8960 max 8960 min
Histogram: 6 0 0 0 0 0 0 0 0 0
Nghost:    11638.3 ave 13811 max 10552 min
Histogram: 4 0 0 0 0 0 0 0 0 2
Neighs:    977984 ave 1.00355e+06 max 941536 min
Histogram: 2 0 0 0 0 0 0 2 0 2
FullNghs:  0 ave 0 max 0 min
Histogram: 6 0 0 0 0 0 0 0 0 0

Total # of neighbors = 5867904
Ave neighs/atom = 109.15
Neighbor list builds = 0
Dangerous builds = 0
#this command creates a model of the script before the displacement and minimization occur
variable E equal "c_eatoms"
variable Eo equal $E
variable Eo equal -238159.276198223
#variable E equal "c_eatoms" computes the initial energy of the model before any sliding is done
#E is necessary to store the initial energy in Eo
#group bot region 1
#group top region 2
# Groups are preserved after restart
displace_atoms top move ${x_displace} 0.0 0.0 units box
displace_atoms top move -0.594571352690454 0.0 0.0 units box

#displace_atoms is the command neccessary to move atoms into the next stacking arrangement (ie: A -> B)

fix 1 all setforce 0 0 NULL
min_style cg
minimize 1e-10 1e-10 1000 1000
WARNING: Resetting reneighboring criteria during minimization (../min.cpp:168)
Neighbor list info ...
  2 neighbor list requests
  update every 1 steps, delay 0 steps, check yes
  max neighbors/atom: 2000, page size: 100000
  master list distance cutoff = 8.56034
  ghost atom cutoff = 8.56034
  binsize = 4.28017 -> bins = 17 17 29
Memory usage per processor = 7.71199 Mbytes
Step PotEng eatoms 
       2   -238085.25   -238085.25 
       3   -238089.18   -238089.18 
       4   -238089.96   -238089.96 
       5   -238090.37   -238090.37 
       6   -238090.58   -238090.58 
       7    -238090.8    -238090.8 
       8   -238090.89   -238090.89 
       9   -238090.97   -238090.97 
      10   -238091.04   -238091.04 
      11   -238091.08   -238091.08 
      12   -238091.12   -238091.12 
      13   -238091.16   -238091.16 
      14   -238091.18   -238091.18 
      15   -238091.21   -238091.21 
      16   -238091.23   -238091.23 
      17   -238091.24   -238091.24 
      18   -238091.25   -238091.25 
      19   -238091.27   -238091.27 
      20   -238091.28   -238091.28 
      21   -238091.29   -238091.29 
      22    -238091.3    -238091.3 
      23   -238091.31   -238091.31 
      24   -238091.32   -238091.32 
      25   -238091.32   -238091.32 
      26   -238091.33   -238091.33 
      27   -238091.34   -238091.34 
      28   -238091.34   -238091.34 
      29   -238091.35   -238091.35 
      30   -238091.35   -238091.35 
      31   -238091.36   -238091.36 
      32   -238091.37   -238091.37 
      33   -238091.38   -238091.38 
      34    -238091.4    -238091.4 
      35   -238091.42   -238091.42 
      36   -238091.44   -238091.44 
      37   -238091.45   -238091.45 
      38   -238091.46   -238091.46 
      39   -238091.47   -238091.47 
      40   -238091.47   -238091.47 
      41   -238091.48   -238091.48 
      42   -238091.48   -238091.48 
      43   -238091.48   -238091.48 
      44   -238091.48   -238091.48 
      45   -238091.48   -238091.48 
      46   -238091.48   -238091.48 
      47   -238091.48   -238091.48 
      48   -238091.48   -238091.48 
      49   -238091.48   -238091.48 
      50   -238091.48   -238091.48 
      51   -238091.48   -238091.48 
      52   -238091.48   -238091.48 
      53   -238091.48   -238091.48 
      54   -238091.48   -238091.48 
      55   -238091.48   -238091.48 
      56   -238091.48   -238091.48 
      57   -238091.48   -238091.48 
      58   -238091.49   -238091.49 
      59   -238091.49   -238091.49 
      60   -238091.49   -238091.49 
      61   -238091.49   -238091.49 
      62   -238091.49   -238091.49 
      63   -238091.49   -238091.49 
      64   -238091.49   -238091.49 
      65   -238091.49   -238091.49 
Loop time of 5.66741 on 6 procs for 63 steps with 53760 atoms

99.9% CPU use with 6 MPI tasks x 1 OpenMP threads

Minimization stats:
  Stopping criterion = energy tolerance
  Energy initial, next-to-last, final = 
        -238085.245867     -238091.485567     -238091.485571
  Force two-norm initial, final = 11.9258 0.00409724
  Force max component initial, final = 0.274625 4.78247e-05
  Final line search alpha, max atom move = 1 4.78247e-05
  Iterations, force evaluations = 63 126

MPI task timing breakdown:
Section |  min time  |  avg time  |  max time  |%varavg| %total
---------------------------------------------------------------
Pair    | 4.1371     | 4.5711     | 5.3595     |  23.9 | 80.66
Neigh   | 0          | 0          | 0          |   0.0 |  0.00
Comm    | 0.12609    | 0.924      | 1.3671     |  53.8 | 16.30
Output  | 0.022931   | 0.023219   | 0.024446   |   0.4 |  0.41
Modify  | 0.0085492  | 0.0097398  | 0.011397   |   1.1 |  0.17
Other   |            | 0.1394     |            |       |  2.46

Nlocal:    8960 ave 8960 max 8960 min
Histogram: 6 0 0 0 0 0 0 0 0 0
Nghost:    11722.3 ave 13895 max 10552 min
Histogram: 4 0 0 0 0 0 0 0 0 2
Neighs:    980971 ave 1.01328e+06 max 940768 min
Histogram: 2 0 0 0 0 0 2 0 0 2
FullNghs:  0 ave 0 max 0 min
Histogram: 6 0 0 0 0 0 0 0 0 0

Total # of neighbors = 5885824
Ave neighs/atom = 109.483
Neighbor list builds = 0
Dangerous builds = 0
variable Ef equal "c_eatoms"
variable Cf equal 1.60217657e-16
variable A equal (cella*cellb)*1e-20
variable SFE equal ((${Ef}-${Eo})*${Cf})/${A}
variable SFE equal ((-238091.485570605-${Eo})*${Cf})/${A}
variable SFE equal ((-238091.485570605--238159.276198223)*${Cf})/${A}
variable SFE equal ((-238091.485570605--238159.276198223)*1.60217657e-16)/${A}
variable SFE equal ((-238091.485570605--238159.276198223)*1.60217657e-16)/4.80619470511564e-17

#variable Ef equal "c_eatoms" computes the final energy of the system after sliding is done
#variable A is the area of the Stacking fault plane
#variable Cf is the conversion factor of electro volts to millijoules
#variable SFE is the stacking-fault energy of the system
####################################
# SIMULATION DONE
print "All done"
All done
print "Initial energy of atoms = ${Eo} eV"
Initial energy of atoms = -238159.276198223 eV
print "Final energy of atoms = ${Ef} eV"
Final energy of atoms = -238091.485570605 eV
print "Stacking-fault energy = ${SFE} mJ/m^2"
Stacking-fault energy = 225.984509365693 mJ/m^2
Total wall time: 0:00:05
