LAMMPS (17 Nov 2015)
WARNING: OMP_NUM_THREADS environment is not set. (../comm.cpp:90)
  using 1 OpenMP thread(s) per MPI task
# Input file for Stack Fault Energy surface of Nickel: originally Richard Glaze, 2014
# Modified Dec 2019 for generalised stacking faults

# --------------------- INITIALIZAITION ---------------------
read_restart ../../init/restart.opt
  orthogonal box = (-0.305467 -0.308632 -0.539994) to (69.2831 70.0011 122.476)
  1 by 2 by 3 MPI processor grid
  53760 atoms

change_box all boundary p p s
variable sca equal 16
variable scb equal 28
variable scc equal 10
variable latparam1 equal 3.52
variable x_displace equal -0.5249137408266572
variable xdim equal ${latparam1}*sqrt(6)/2*${sca}
variable xdim equal 3.52*sqrt(6)/2*${sca}
variable xdim equal 3.52*sqrt(6)/2*16
variable ydim equal ${latparam1}*sqrt(2)/2*${scb}
variable ydim equal 3.52*sqrt(2)/2*${scb}
variable ydim equal 3.52*sqrt(2)/2*28
variable zmid equal ${latparam1}*sqrt(3)*${scc}
variable zmid equal 3.52*sqrt(3)*${scc}
variable zmid equal 3.52*sqrt(3)*10
variable ztop equal ${zmid}*2
variable ztop equal 60.9681884264245*2
# --------------------- ATOM DEFINITION ---------------------
# Not needed because restarted
# --------------------- FORCE FIELDS ---------------------
pair_style eam/alloy
pair_coeff * * ../../../NiAlCoCrMoTiWTa.set Al Co Ni
#pair_coeff * * Ni99.eam.alloy Ni Ni
# Also not needed because restarted
# --------------------- SETTINGS ---------------------
compute peratom all pe/atom
compute eatoms all reduce sum c_peratom
compute csym all centro/atom fcc
thermo 1
thermo_style custom step pe c_eatoms
#dump 1 all custom 1 dump.relax.1.* id type xs ys zs c_peratom c_csym
run 0
WARNING: No fixes defined, atoms won't move (../verlet.cpp:55)
Neighbor list info ...
  2 neighbor list requests
  update every 1 steps, delay 10 steps, check yes
  max neighbors/atom: 2000, page size: 100000
  master list distance cutoff = 8.56034
  ghost atom cutoff = 8.56034
  binsize = 4.28017 -> bins = 17 17 29
Memory usage per processor = 5.18855 Mbytes
Step PotEng eatoms 
      38   -234482.26   -234482.26 
Loop time of 4.84784e-06 on 6 procs for 0 steps with 53760 atoms

137.5% CPU use with 6 MPI tasks x 1 OpenMP threads

MPI task timing breakdown:
Section |  min time  |  avg time  |  max time  |%varavg| %total
---------------------------------------------------------------
Pair    | 0          | 0          | 0          |   0.0 |  0.00
Neigh   | 0          | 0          | 0          |   0.0 |  0.00
Comm    | 0          | 0          | 0          |   0.0 |  0.00
Output  | 0          | 0          | 0          |   0.0 |  0.00
Modify  | 0          | 0          | 0          |   0.0 |  0.00
Other   |            | 4.848e-06  |            |       |100.00

Nlocal:    8960 ave 9125 max 8849 min
Histogram: 2 1 0 0 1 0 1 0 0 1
Nghost:    12178 ave 14551 max 10965 min
Histogram: 4 0 0 0 0 0 0 0 0 2
Neighs:    976936 ave 1.02163e+06 max 917197 min
Histogram: 1 1 0 0 0 0 1 1 0 2
FullNghs:  0 ave 0 max 0 min
Histogram: 6 0 0 0 0 0 0 0 0 0

Total # of neighbors = 5861616
Ave neighs/atom = 109.033
Neighbor list builds = 0
Dangerous builds = 0
#this command creates a model of the script before the displacement and minimization occur
variable E equal "c_eatoms"
variable Eo equal $E
variable Eo equal -234482.259789123
#variable E equal "c_eatoms" computes the initial energy of the model before any sliding is done
#E is necessary to store the initial energy in Eo
#group bot region 1
#group top region 2
# Groups are preserved after restart
displace_atoms top move ${x_displace} 0.0 0.0 units box
displace_atoms top move -0.524913740826657 0.0 0.0 units box

#displace_atoms is the command neccessary to move atoms into the next stacking arrangement (ie: A -> B)

fix 1 all setforce 0 0 NULL
min_style cg
minimize 1e-10 1e-10 1000 1000
WARNING: Resetting reneighboring criteria during minimization (../min.cpp:168)
Neighbor list info ...
  2 neighbor list requests
  update every 1 steps, delay 0 steps, check yes
  max neighbors/atom: 2000, page size: 100000
  master list distance cutoff = 8.56034
  ghost atom cutoff = 8.56034
  binsize = 4.28017 -> bins = 17 17 29
Memory usage per processor = 7.68855 Mbytes
Step PotEng eatoms 
      38   -234347.21   -234347.21 
      39   -234375.03   -234375.03 
      40   -234388.21   -234388.21 
      41   -234395.25   -234395.25 
      42   -234399.97   -234399.97 
      43   -234401.91   -234401.91 
      44   -234403.42   -234403.42 
      45   -234403.84   -234403.84 
      46   -234404.14   -234404.14 
      47   -234404.37   -234404.37 
      48   -234404.54   -234404.54 
      49   -234404.65   -234404.65 
      50   -234404.76   -234404.76 
      51   -234404.83   -234404.83 
      52   -234404.89   -234404.89 
      53   -234404.93   -234404.93 
      54   -234404.97   -234404.97 
      55   -234405.01   -234405.01 
      56   -234405.04   -234405.04 
      57   -234405.06   -234405.06 
      58   -234405.08   -234405.08 
      59    -234405.1    -234405.1 
      60   -234405.11   -234405.11 
      61   -234405.13   -234405.13 
      62   -234405.14   -234405.14 
      63   -234405.15   -234405.15 
      64   -234405.16   -234405.16 
      65   -234405.17   -234405.17 
      66   -234405.17   -234405.17 
      67   -234405.18   -234405.18 
      68   -234405.18   -234405.18 
      69   -234405.19   -234405.19 
      70   -234405.19   -234405.19 
      71    -234405.2    -234405.2 
      72    -234405.2    -234405.2 
      73   -234405.21   -234405.21 
      74   -234405.21   -234405.21 
      75   -234405.22   -234405.22 
      76   -234405.22   -234405.22 
      77   -234405.23   -234405.23 
      78   -234405.23   -234405.23 
      79   -234405.24   -234405.24 
      80   -234405.24   -234405.24 
      81   -234405.24   -234405.24 
      82   -234405.25   -234405.25 
      83   -234405.25   -234405.25 
      84   -234405.25   -234405.25 
      85   -234405.26   -234405.26 
      86   -234405.26   -234405.26 
      87   -234405.26   -234405.26 
      88   -234405.26   -234405.26 
      89   -234405.27   -234405.27 
      90   -234405.27   -234405.27 
      91   -234405.27   -234405.27 
      92   -234405.27   -234405.27 
      93   -234405.28   -234405.28 
      94   -234405.28   -234405.28 
      95   -234405.28   -234405.28 
      96   -234405.28   -234405.28 
      97   -234405.28   -234405.28 
      98   -234405.28   -234405.28 
      99   -234405.28   -234405.28 
     100   -234405.29   -234405.29 
     101   -234405.29   -234405.29 
     102   -234405.29   -234405.29 
     103   -234405.29   -234405.29 
     104   -234405.29   -234405.29 
     105   -234405.29   -234405.29 
     106   -234405.29   -234405.29 
     107   -234405.29   -234405.29 
     108   -234405.29   -234405.29 
     109   -234405.29   -234405.29 
     110   -234405.29   -234405.29 
     111   -234405.29   -234405.29 
     112   -234405.29   -234405.29 
     113   -234405.29   -234405.29 
     114   -234405.29   -234405.29 
     115   -234405.29   -234405.29 
     116   -234405.29   -234405.29 
     117   -234405.29   -234405.29 
     118   -234405.29   -234405.29 
     119   -234405.29   -234405.29 
     120   -234405.29   -234405.29 
     121   -234405.29   -234405.29 
     122   -234405.29   -234405.29 
     123   -234405.29   -234405.29 
     124   -234405.29   -234405.29 
     125   -234405.29   -234405.29 
     126   -234405.29   -234405.29 
     127   -234405.29   -234405.29 
     128   -234405.29   -234405.29 
Loop time of 10.7122 on 6 procs for 90 steps with 53760 atoms

99.9% CPU use with 6 MPI tasks x 1 OpenMP threads

Minimization stats:
  Stopping criterion = energy tolerance
  Energy initial, next-to-last, final = 
        -234347.212019     -234405.292923     -234405.292946
  Force two-norm initial, final = 27.1567 0.0169515
  Force max component initial, final = 1.57974 0.00652827
  Final line search alpha, max atom move = 1 0.00652827
  Iterations, force evaluations = 90 174

MPI task timing breakdown:
Section |  min time  |  avg time  |  max time  |%varavg| %total
---------------------------------------------------------------
Pair    | 8.0489     | 8.697      | 9.8148     |  20.9 | 81.19
Neigh   | 0          | 0          | 0          |   0.0 |  0.00
Comm    | 0.64361    | 1.7706     | 2.4194     |  46.7 | 16.53
Output  | 0.035395   | 0.035813   | 0.037702   |   0.4 |  0.33
Modify  | 0.012266   | 0.013779   | 0.01617    |   1.4 |  0.13
Other   |            | 0.195      |            |       |  1.82

Nlocal:    8960 ave 9125 max 8849 min
Histogram: 2 1 0 0 1 0 1 0 0 1
Nghost:    12261.7 ave 14635 max 11009 min
Histogram: 4 0 0 0 0 0 0 0 0 2
Neighs:    977394 ave 1.02335e+06 max 916880 min
Histogram: 1 1 0 0 0 0 1 1 0 2
FullNghs:  0 ave 0 max 0 min
Histogram: 6 0 0 0 0 0 0 0 0 0

Total # of neighbors = 5864367
Ave neighs/atom = 109.084
Neighbor list builds = 0
Dangerous builds = 0
variable Ef equal "c_eatoms"
variable Cf equal 1.60217657e-16
variable A equal (cella*cellb)*1e-20
variable SFE equal ((${Ef}-${Eo})*${Cf})/${A}
variable SFE equal ((-234405.292945812-${Eo})*${Cf})/${A}
variable SFE equal ((-234405.292945812--234482.259789123)*${Cf})/${A}
variable SFE equal ((-234405.292945812--234482.259789123)*1.60217657e-16)/${A}
variable SFE equal ((-234405.292945812--234482.259789123)*1.60217657e-16)/4.89275170426208e-17

#variable Ef equal "c_eatoms" computes the final energy of the system after sliding is done
#variable A is the area of the Stacking fault plane
#variable Cf is the conversion factor of electro volts to millijoules
#variable SFE is the stacking-fault energy of the system
####################################
# SIMULATION DONE
print "All done"
All done
print "Initial energy of atoms = ${Eo} eV"
Initial energy of atoms = -234482.259789123 eV
print "Final energy of atoms = ${Ef} eV"
Final energy of atoms = -234405.292945812 eV
print "Stacking-fault energy = ${SFE} mJ/m^2"
Stacking-fault energy = 252.035011121318 mJ/m^2
Total wall time: 0:00:10
