LAMMPS (17 Nov 2015)
WARNING: OMP_NUM_THREADS environment is not set. (../comm.cpp:90)
  using 1 OpenMP thread(s) per MPI task
# Input file for Stack Fault Energy surface of Nickel: originally Richard Glaze, 2014
# Modified Dec 2019 for generalised stacking faults

# --------------------- INITIALIZAITION ---------------------
read_restart ../../init/restart.opt
  orthogonal box = (-0.305467 -0.308632 -0.539994) to (69.2831 70.0011 122.476)
  1 by 2 by 3 MPI processor grid
  53760 atoms

change_box all boundary p p s
variable sca equal 16
variable scb equal 28
variable scc equal 10
variable latparam1 equal 3.52
variable x_displace equal -0.14997535452190205
variable xdim equal ${latparam1}*sqrt(6)/2*${sca}
variable xdim equal 3.52*sqrt(6)/2*${sca}
variable xdim equal 3.52*sqrt(6)/2*16
variable ydim equal ${latparam1}*sqrt(2)/2*${scb}
variable ydim equal 3.52*sqrt(2)/2*${scb}
variable ydim equal 3.52*sqrt(2)/2*28
variable zmid equal ${latparam1}*sqrt(3)*${scc}
variable zmid equal 3.52*sqrt(3)*${scc}
variable zmid equal 3.52*sqrt(3)*10
variable ztop equal ${zmid}*2
variable ztop equal 60.9681884264245*2
# --------------------- ATOM DEFINITION ---------------------
# Not needed because restarted
# --------------------- FORCE FIELDS ---------------------
pair_style eam/alloy
pair_coeff * * ../../../NiAlCoCrMoTiWTa.set Al Co Ni
#pair_coeff * * Ni99.eam.alloy Ni Ni
# Also not needed because restarted
# --------------------- SETTINGS ---------------------
compute peratom all pe/atom
compute eatoms all reduce sum c_peratom
compute csym all centro/atom fcc
thermo 1
thermo_style custom step pe c_eatoms
#dump 1 all custom 1 dump.relax.1.* id type xs ys zs c_peratom c_csym
run 0
WARNING: No fixes defined, atoms won't move (../verlet.cpp:55)
Neighbor list info ...
  2 neighbor list requests
  update every 1 steps, delay 10 steps, check yes
  max neighbors/atom: 2000, page size: 100000
  master list distance cutoff = 8.56034
  ghost atom cutoff = 8.56034
  binsize = 4.28017 -> bins = 17 17 29
Memory usage per processor = 5.18855 Mbytes
Step PotEng eatoms 
      38   -234482.26   -234482.26 
Loop time of 3.21865e-06 on 6 procs for 0 steps with 53760 atoms

170.9% CPU use with 6 MPI tasks x 1 OpenMP threads

MPI task timing breakdown:
Section |  min time  |  avg time  |  max time  |%varavg| %total
---------------------------------------------------------------
Pair    | 0          | 0          | 0          |   0.0 |  0.00
Neigh   | 0          | 0          | 0          |   0.0 |  0.00
Comm    | 0          | 0          | 0          |   0.0 |  0.00
Output  | 0          | 0          | 0          |   0.0 |  0.00
Modify  | 0          | 0          | 0          |   0.0 |  0.00
Other   |            | 3.219e-06  |            |       |100.00

Nlocal:    8960 ave 9125 max 8849 min
Histogram: 2 1 0 0 1 0 1 0 0 1
Nghost:    12178 ave 14551 max 10965 min
Histogram: 4 0 0 0 0 0 0 0 0 2
Neighs:    976936 ave 1.02163e+06 max 917197 min
Histogram: 1 1 0 0 0 0 1 1 0 2
FullNghs:  0 ave 0 max 0 min
Histogram: 6 0 0 0 0 0 0 0 0 0

Total # of neighbors = 5861616
Ave neighs/atom = 109.033
Neighbor list builds = 0
Dangerous builds = 0
#this command creates a model of the script before the displacement and minimization occur
variable E equal "c_eatoms"
variable Eo equal $E
variable Eo equal -234482.259789123
#variable E equal "c_eatoms" computes the initial energy of the model before any sliding is done
#E is necessary to store the initial energy in Eo
#group bot region 1
#group top region 2
# Groups are preserved after restart
displace_atoms top move ${x_displace} 0.0 0.0 units box
displace_atoms top move -0.149975354521902 0.0 0.0 units box

#displace_atoms is the command neccessary to move atoms into the next stacking arrangement (ie: A -> B)

fix 1 all setforce 0 0 NULL
min_style cg
minimize 1e-10 1e-10 1000 1000
WARNING: Resetting reneighboring criteria during minimization (../min.cpp:168)
Neighbor list info ...
  2 neighbor list requests
  update every 1 steps, delay 0 steps, check yes
  max neighbors/atom: 2000, page size: 100000
  master list distance cutoff = 8.56034
  ghost atom cutoff = 8.56034
  binsize = 4.28017 -> bins = 17 17 29
Memory usage per processor = 7.68855 Mbytes
Step PotEng eatoms 
      38   -234467.69   -234467.69 
      39   -234483.92   -234483.92 
      40   -234493.42   -234493.42 
      41   -234498.45   -234498.45 
      42   -234500.87   -234500.87 
      43   -234503.26   -234503.26 
      44   -234503.66   -234503.66 
      45   -234504.33   -234504.33 
      46    -234504.7    -234504.7 
      47   -234504.79   -234504.79 
      48    -234504.9    -234504.9 
      49   -234504.97   -234504.97 
      50   -234505.04   -234505.04 
      51   -234505.07   -234505.07 
      52   -234505.09   -234505.09 
      53   -234505.11   -234505.11 
      54   -234505.13   -234505.13 
      55   -234505.14   -234505.14 
      56   -234505.15   -234505.15 
      57   -234505.16   -234505.16 
      58   -234505.17   -234505.17 
      59   -234505.18   -234505.18 
      60   -234505.18   -234505.18 
      61   -234505.19   -234505.19 
      62   -234505.19   -234505.19 
      63   -234505.19   -234505.19 
      64   -234505.19   -234505.19 
      65    -234505.2    -234505.2 
      66    -234505.2    -234505.2 
      67    -234505.2    -234505.2 
      68    -234505.2    -234505.2 
      69    -234505.2    -234505.2 
      70    -234505.2    -234505.2 
      71    -234505.2    -234505.2 
      72    -234505.2    -234505.2 
      73    -234505.2    -234505.2 
      74   -234505.21   -234505.21 
      75   -234505.21   -234505.21 
      76   -234505.21   -234505.21 
      77   -234505.21   -234505.21 
      78   -234505.21   -234505.21 
      79   -234505.21   -234505.21 
      80   -234505.21   -234505.21 
      81   -234505.21   -234505.21 
      82   -234505.21   -234505.21 
      83   -234505.21   -234505.21 
      84   -234505.21   -234505.21 
      85   -234505.21   -234505.21 
      86   -234505.21   -234505.21 
      87   -234505.21   -234505.21 
      88   -234505.21   -234505.21 
      89   -234505.21   -234505.21 
      90   -234505.21   -234505.21 
      91   -234505.21   -234505.21 
      92   -234505.21   -234505.21 
      93   -234505.21   -234505.21 
      94   -234505.21   -234505.21 
Loop time of 6.28735 on 6 procs for 56 steps with 53760 atoms

99.9% CPU use with 6 MPI tasks x 1 OpenMP threads

Minimization stats:
  Stopping criterion = energy tolerance
  Energy initial, next-to-last, final = 
        -234467.692635     -234505.208214     -234505.208234
  Force two-norm initial, final = 18.5476 0.0139752
  Force max component initial, final = 1.57974 0.000413187
  Final line search alpha, max atom move = 1 0.000413187
  Iterations, force evaluations = 56 107

MPI task timing breakdown:
Section |  min time  |  avg time  |  max time  |%varavg| %total
---------------------------------------------------------------
Pair    | 4.9677     | 5.2962     | 5.5326     |   8.2 | 84.24
Neigh   | 0          | 0          | 0          |   0.0 |  0.00
Comm    | 0.59847    | 0.83533    | 1.1649     |  20.8 | 13.29
Output  | 0.022201   | 0.022472   | 0.023717   |   0.4 |  0.36
Modify  | 0.0081198  | 0.0086838  | 0.0097568  |   0.7 |  0.14
Other   |            | 0.1247     |            |       |  1.98

Nlocal:    8960 ave 9125 max 8849 min
Histogram: 2 1 0 0 1 0 1 0 0 1
Nghost:    12240.2 ave 14617 max 11009 min
Histogram: 4 0 0 0 0 0 0 0 0 2
Neighs:    977055 ave 1.02195e+06 max 917213 min
Histogram: 1 1 0 0 0 0 1 1 0 2
FullNghs:  0 ave 0 max 0 min
Histogram: 6 0 0 0 0 0 0 0 0 0

Total # of neighbors = 5862332
Ave neighs/atom = 109.046
Neighbor list builds = 0
Dangerous builds = 0
variable Ef equal "c_eatoms"
variable Cf equal 1.60217657e-16
variable A equal (cella*cellb)*1e-20
variable SFE equal ((${Ef}-${Eo})*${Cf})/${A}
variable SFE equal ((-234505.208234427-${Eo})*${Cf})/${A}
variable SFE equal ((-234505.208234427--234482.259789123)*${Cf})/${A}
variable SFE equal ((-234505.208234427--234482.259789123)*1.60217657e-16)/${A}
variable SFE equal ((-234505.208234427--234482.259789123)*1.60217657e-16)/4.89275170426208e-17

#variable Ef equal "c_eatoms" computes the final energy of the system after sliding is done
#variable A is the area of the Stacking fault plane
#variable Cf is the conversion factor of electro volts to millijoules
#variable SFE is the stacking-fault energy of the system
####################################
# SIMULATION DONE
print "All done"
All done
print "Initial energy of atoms = ${Eo} eV"
Initial energy of atoms = -234482.259789123 eV
print "Final energy of atoms = ${Ef} eV"
Final energy of atoms = -234505.208234427 eV
print "Stacking-fault energy = ${SFE} mJ/m^2"
Stacking-fault energy = -75.1467959266696 mJ/m^2
Total wall time: 0:00:06
