LAMMPS (17 Nov 2015)
WARNING: OMP_NUM_THREADS environment is not set. (../comm.cpp:90)
  using 1 OpenMP thread(s) per MPI task
# Input file for Stack Fault Energy surface of Nickel: originally Richard Glaze, 2014
# Modified Dec 2019 for generalised stacking faults

# --------------------- INITIALIZAITION ---------------------
read_restart ../../init/restart.opt
  orthogonal box = (0.00367712 0.00371523 0.0065003) to (68.974 69.6887 121.93)
  1 by 2 by 3 MPI processor grid
  53760 atoms

change_box all boundary p p s
variable sca equal 16
variable scb equal 28
variable scc equal 10
variable latparam1 equal 3.52
variable x_displace equal -1.5607498008124405
variable xdim equal ${latparam1}*sqrt(6)/2*${sca}
variable xdim equal 3.52*sqrt(6)/2*${sca}
variable xdim equal 3.52*sqrt(6)/2*16
variable ydim equal ${latparam1}*sqrt(2)/2*${scb}
variable ydim equal 3.52*sqrt(2)/2*${scb}
variable ydim equal 3.52*sqrt(2)/2*28
variable zmid equal ${latparam1}*sqrt(3)*${scc}
variable zmid equal 3.52*sqrt(3)*${scc}
variable zmid equal 3.52*sqrt(3)*10
variable ztop equal ${zmid}*2
variable ztop equal 60.9681884264245*2
# --------------------- ATOM DEFINITION ---------------------
# Not needed because restarted
# --------------------- FORCE FIELDS ---------------------
pair_style eam/alloy
pair_coeff * * ../../../NiAlCoCrMoTiWTa.set Ni Ni
#pair_coeff * * Ni99.eam.alloy Ni Ni
# Also not needed because restarted
# --------------------- SETTINGS ---------------------
compute peratom all pe/atom
compute eatoms all reduce sum c_peratom
compute csym all centro/atom fcc
thermo 1
thermo_style custom step pe c_eatoms
#dump 1 all custom 1 dump.relax.1.* id type xs ys zs c_peratom c_csym
run 0
WARNING: No fixes defined, atoms won't move (../verlet.cpp:55)
Neighbor list info ...
  2 neighbor list requests
  update every 1 steps, delay 10 steps, check yes
  max neighbors/atom: 2000, page size: 100000
  master list distance cutoff = 8.56034
  ghost atom cutoff = 8.56034
  binsize = 4.28017 -> bins = 17 17 29
Memory usage per processor = 5.21199 Mbytes
Step PotEng eatoms 
       2   -238159.28   -238159.28 
Loop time of 3.57628e-06 on 6 procs for 0 steps with 53760 atoms

167.8% CPU use with 6 MPI tasks x 1 OpenMP threads

MPI task timing breakdown:
Section |  min time  |  avg time  |  max time  |%varavg| %total
---------------------------------------------------------------
Pair    | 0          | 0          | 0          |   0.0 |  0.00
Neigh   | 0          | 0          | 0          |   0.0 |  0.00
Comm    | 0          | 0          | 0          |   0.0 |  0.00
Output  | 0          | 0          | 0          |   0.0 |  0.00
Modify  | 0          | 0          | 0          |   0.0 |  0.00
Other   |            | 3.576e-06  |            |       |100.00

Nlocal:    8960 ave 8960 max 8960 min
Histogram: 6 0 0 0 0 0 0 0 0 0
Nghost:    11638.3 ave 13811 max 10552 min
Histogram: 4 0 0 0 0 0 0 0 0 2
Neighs:    977984 ave 1.00355e+06 max 941536 min
Histogram: 2 0 0 0 0 0 0 2 0 2
FullNghs:  0 ave 0 max 0 min
Histogram: 6 0 0 0 0 0 0 0 0 0

Total # of neighbors = 5867904
Ave neighs/atom = 109.15
Neighbor list builds = 0
Dangerous builds = 0
#this command creates a model of the script before the displacement and minimization occur
variable E equal "c_eatoms"
variable Eo equal $E
variable Eo equal -238159.276198223
#variable E equal "c_eatoms" computes the initial energy of the model before any sliding is done
#E is necessary to store the initial energy in Eo
#group bot region 1
#group top region 2
# Groups are preserved after restart
displace_atoms top move ${x_displace} 0.0 0.0 units box
displace_atoms top move -1.56074980081244 0.0 0.0 units box

#displace_atoms is the command neccessary to move atoms into the next stacking arrangement (ie: A -> B)

fix 1 all setforce 0 0 NULL
min_style cg
minimize 1e-10 1e-10 1000 1000
WARNING: Resetting reneighboring criteria during minimization (../min.cpp:168)
Neighbor list info ...
  2 neighbor list requests
  update every 1 steps, delay 0 steps, check yes
  max neighbors/atom: 2000, page size: 100000
  master list distance cutoff = 8.56034
  ghost atom cutoff = 8.56034
  binsize = 4.28017 -> bins = 17 17 29
Memory usage per processor = 7.71199 Mbytes
Step PotEng eatoms 
       2   -238120.68   -238120.68 
       3   -238121.54   -238121.54 
       4   -238121.88   -238121.88 
       5   -238122.08   -238122.08 
       6    -238122.2    -238122.2 
       7    -238122.3    -238122.3 
       8   -238122.37   -238122.37 
       9   -238122.41   -238122.41 
      10   -238122.45   -238122.45 
      11   -238122.48   -238122.48 
      12   -238122.51   -238122.51 
      13   -238122.53   -238122.53 
      14   -238122.55   -238122.55 
      15   -238122.56   -238122.56 
      16   -238122.57   -238122.57 
      17   -238122.58   -238122.58 
      18    -238122.6    -238122.6 
      19   -238122.61   -238122.61 
      20   -238122.61   -238122.61 
      21   -238122.62   -238122.62 
      22   -238122.63   -238122.63 
      23   -238122.63   -238122.63 
      24   -238122.64   -238122.64 
      25   -238122.65   -238122.65 
      26   -238122.65   -238122.65 
      27   -238122.65   -238122.65 
      28   -238122.66   -238122.66 
      29   -238122.66   -238122.66 
      30   -238122.67   -238122.67 
      31   -238122.68   -238122.68 
      32   -238122.69   -238122.69 
      33    -238122.7    -238122.7 
      34   -238122.72   -238122.72 
      35   -238122.74   -238122.74 
      36   -238122.74   -238122.74 
      37   -238122.75   -238122.75 
      38   -238122.75   -238122.75 
      39   -238122.76   -238122.76 
      40   -238122.76   -238122.76 
      41   -238122.76   -238122.76 
      42   -238122.76   -238122.76 
      43   -238122.76   -238122.76 
      44   -238122.76   -238122.76 
      45   -238122.76   -238122.76 
      46   -238122.76   -238122.76 
      47   -238122.76   -238122.76 
      48   -238122.76   -238122.76 
      49   -238122.76   -238122.76 
      50   -238122.76   -238122.76 
      51   -238122.76   -238122.76 
      52   -238122.76   -238122.76 
      53   -238122.76   -238122.76 
      54   -238122.76   -238122.76 
      55   -238122.76   -238122.76 
      56   -238122.76   -238122.76 
      57   -238122.76   -238122.76 
      58   -238122.76   -238122.76 
      59   -238122.76   -238122.76 
      60   -238122.77   -238122.77 
      61   -238122.77   -238122.77 
      62   -238122.77   -238122.77 
Loop time of 5.62858 on 6 procs for 60 steps with 53760 atoms

99.9% CPU use with 6 MPI tasks x 1 OpenMP threads

Minimization stats:
  Stopping criterion = energy tolerance
  Energy initial, next-to-last, final = 
        -238120.676592     -238122.765139     -238122.765162
  Force two-norm initial, final = 4.54277 0.0122819
  Force max component initial, final = 0.0747717 0.000185019
  Final line search alpha, max atom move = 1 0.000185019
  Iterations, force evaluations = 60 120

MPI task timing breakdown:
Section |  min time  |  avg time  |  max time  |%varavg| %total
---------------------------------------------------------------
Pair    | 4.2963     | 4.731      | 5.3279     |  20.0 | 84.05
Neigh   | 0          | 0          | 0          |   0.0 |  0.00
Comm    | 0.13001    | 0.73403    | 1.1753     |  51.4 | 13.04
Output  | 0.021459   | 0.021719   | 0.022945   |   0.4 |  0.39
Modify  | 0.0079288  | 0.0091558  | 0.011017   |   1.2 |  0.16
Other   |            | 0.1326     |            |       |  2.36

Nlocal:    8960 ave 8960 max 8960 min
Histogram: 6 0 0 0 0 0 0 0 0 0
Nghost:    11722.3 ave 13895 max 10552 min
Histogram: 4 0 0 0 0 0 0 0 0 2
Neighs:    980373 ave 1.01069e+06 max 941568 min
Histogram: 2 0 0 0 0 0 2 0 0 2
FullNghs:  0 ave 0 max 0 min
Histogram: 6 0 0 0 0 0 0 0 0 0

Total # of neighbors = 5882240
Ave neighs/atom = 109.417
Neighbor list builds = 0
Dangerous builds = 0
variable Ef equal "c_eatoms"
variable Cf equal 1.60217657e-16
variable A equal (cella*cellb)*1e-20
variable SFE equal ((${Ef}-${Eo})*${Cf})/${A}
variable SFE equal ((-238122.765161081-${Eo})*${Cf})/${A}
variable SFE equal ((-238122.765161081--238159.276198223)*${Cf})/${A}
variable SFE equal ((-238122.765161081--238159.276198223)*1.60217657e-16)/${A}
variable SFE equal ((-238122.765161081--238159.276198223)*1.60217657e-16)/4.80619470511564e-17

#variable Ef equal "c_eatoms" computes the final energy of the system after sliding is done
#variable A is the area of the Stacking fault plane
#variable Cf is the conversion factor of electro volts to millijoules
#variable SFE is the stacking-fault energy of the system
####################################
# SIMULATION DONE
print "All done"
All done
print "Initial energy of atoms = ${Eo} eV"
Initial energy of atoms = -238159.276198223 eV
print "Final energy of atoms = ${Ef} eV"
Final energy of atoms = -238122.765161081 eV
print "Stacking-fault energy = ${SFE} mJ/m^2"
Stacking-fault energy = 121.71194020298 mJ/m^2
Total wall time: 0:00:05
