LAMMPS (17 Nov 2015)
WARNING: OMP_NUM_THREADS environment is not set. (../comm.cpp:90)
  using 1 OpenMP thread(s) per MPI task
# Input file for Stack Fault Energy surface of Nickel: originally Richard Glaze, 2014
# Modified Dec 2019 for generalised stacking faults

# --------------------- INITIALIZAITION ---------------------
read_restart ../../init/restart.opt
  orthogonal box = (0.00367712 0.00371523 0.0065003) to (68.974 69.6887 121.93)
  1 by 2 by 3 MPI processor grid
  53760 atoms

change_box all boundary p p s
variable sca equal 16
variable scb equal 28
variable scc equal 10
variable latparam1 equal 3.52
variable x_displace equal -0.22296425725892016
variable xdim equal ${latparam1}*sqrt(6)/2*${sca}
variable xdim equal 3.52*sqrt(6)/2*${sca}
variable xdim equal 3.52*sqrt(6)/2*16
variable ydim equal ${latparam1}*sqrt(2)/2*${scb}
variable ydim equal 3.52*sqrt(2)/2*${scb}
variable ydim equal 3.52*sqrt(2)/2*28
variable zmid equal ${latparam1}*sqrt(3)*${scc}
variable zmid equal 3.52*sqrt(3)*${scc}
variable zmid equal 3.52*sqrt(3)*10
variable ztop equal ${zmid}*2
variable ztop equal 60.9681884264245*2
# --------------------- ATOM DEFINITION ---------------------
# Not needed because restarted
# --------------------- FORCE FIELDS ---------------------
pair_style eam/alloy
pair_coeff * * ../../../NiAlCoCrMoTiWTa.set Ni Ni
#pair_coeff * * Ni99.eam.alloy Ni Ni
# Also not needed because restarted
# --------------------- SETTINGS ---------------------
compute peratom all pe/atom
compute eatoms all reduce sum c_peratom
compute csym all centro/atom fcc
thermo 1
thermo_style custom step pe c_eatoms
#dump 1 all custom 1 dump.relax.1.* id type xs ys zs c_peratom c_csym
run 0
WARNING: No fixes defined, atoms won't move (../verlet.cpp:55)
Neighbor list info ...
  2 neighbor list requests
  update every 1 steps, delay 10 steps, check yes
  max neighbors/atom: 2000, page size: 100000
  master list distance cutoff = 8.56034
  ghost atom cutoff = 8.56034
  binsize = 4.28017 -> bins = 17 17 29
Memory usage per processor = 5.21199 Mbytes
Step PotEng eatoms 
       2   -238159.28   -238159.28 
Loop time of 3.49681e-06 on 6 procs for 0 steps with 53760 atoms

147.8% CPU use with 6 MPI tasks x 1 OpenMP threads

MPI task timing breakdown:
Section |  min time  |  avg time  |  max time  |%varavg| %total
---------------------------------------------------------------
Pair    | 0          | 0          | 0          |   0.0 |  0.00
Neigh   | 0          | 0          | 0          |   0.0 |  0.00
Comm    | 0          | 0          | 0          |   0.0 |  0.00
Output  | 0          | 0          | 0          |   0.0 |  0.00
Modify  | 0          | 0          | 0          |   0.0 |  0.00
Other   |            | 3.497e-06  |            |       |100.00

Nlocal:    8960 ave 8960 max 8960 min
Histogram: 6 0 0 0 0 0 0 0 0 0
Nghost:    11638.3 ave 13811 max 10552 min
Histogram: 4 0 0 0 0 0 0 0 0 2
Neighs:    977984 ave 1.00355e+06 max 941536 min
Histogram: 2 0 0 0 0 0 0 2 0 2
FullNghs:  0 ave 0 max 0 min
Histogram: 6 0 0 0 0 0 0 0 0 0

Total # of neighbors = 5867904
Ave neighs/atom = 109.15
Neighbor list builds = 0
Dangerous builds = 0
#this command creates a model of the script before the displacement and minimization occur
variable E equal "c_eatoms"
variable Eo equal $E
variable Eo equal -238159.276198223
#variable E equal "c_eatoms" computes the initial energy of the model before any sliding is done
#E is necessary to store the initial energy in Eo
#group bot region 1
#group top region 2
# Groups are preserved after restart
displace_atoms top move ${x_displace} 0.0 0.0 units box
displace_atoms top move -0.22296425725892 0.0 0.0 units box

#displace_atoms is the command neccessary to move atoms into the next stacking arrangement (ie: A -> B)

fix 1 all setforce 0 0 NULL
min_style cg
minimize 1e-10 1e-10 1000 1000
WARNING: Resetting reneighboring criteria during minimization (../min.cpp:168)
Neighbor list info ...
  2 neighbor list requests
  update every 1 steps, delay 0 steps, check yes
  max neighbors/atom: 2000, page size: 100000
  master list distance cutoff = 8.56034
  ghost atom cutoff = 8.56034
  binsize = 4.28017 -> bins = 17 17 29
Memory usage per processor = 7.71199 Mbytes
Step PotEng eatoms 
       2    -238138.8    -238138.8 
       3   -238139.28   -238139.28 
       4   -238139.34   -238139.34 
       5   -238139.37   -238139.37 
       6   -238139.38   -238139.38 
       7   -238139.39   -238139.39 
       8    -238139.4    -238139.4 
       9    -238139.4    -238139.4 
      10   -238139.41   -238139.41 
      11   -238139.41   -238139.41 
      12   -238139.41   -238139.41 
      13   -238139.41   -238139.41 
      14   -238139.42   -238139.42 
      15   -238139.42   -238139.42 
      16   -238139.42   -238139.42 
      17   -238139.42   -238139.42 
      18   -238139.42   -238139.42 
      19   -238139.42   -238139.42 
      20   -238139.42   -238139.42 
      21   -238139.42   -238139.42 
      22   -238139.42   -238139.42 
      23   -238139.42   -238139.42 
      24   -238139.42   -238139.42 
      25   -238139.42   -238139.42 
      26   -238139.42   -238139.42 
      27   -238139.42   -238139.42 
      28   -238139.42   -238139.42 
      29   -238139.42   -238139.42 
      30   -238139.42   -238139.42 
      31   -238139.43   -238139.43 
      32   -238139.43   -238139.43 
      33   -238139.43   -238139.43 
      34   -238139.43   -238139.43 
      35   -238139.43   -238139.43 
      36   -238139.43   -238139.43 
      37   -238139.43   -238139.43 
      38   -238139.43   -238139.43 
      39   -238139.43   -238139.43 
      40   -238139.43   -238139.43 
      41   -238139.43   -238139.43 
      42   -238139.43   -238139.43 
      43   -238139.43   -238139.43 
      44   -238139.43   -238139.43 
      45   -238139.43   -238139.43 
      46   -238139.43   -238139.43 
      47   -238139.43   -238139.43 
Loop time of 3.8187 on 6 procs for 45 steps with 53760 atoms

99.9% CPU use with 6 MPI tasks x 1 OpenMP threads

Minimization stats:
  Stopping criterion = energy tolerance
  Energy initial, next-to-last, final = 
         -238138.80227       -238139.4316     -238139.431621
  Force two-norm initial, final = 3.99056 0.015594
  Force max component initial, final = 0.0702733 0.000164162
  Final line search alpha, max atom move = 1 0.000164162
  Iterations, force evaluations = 45 90

MPI task timing breakdown:
Section |  min time  |  avg time  |  max time  |%varavg| %total
---------------------------------------------------------------
Pair    | 2.7986     | 3.1015     | 3.537      |  15.3 | 81.22
Neigh   | 0          | 0          | 0          |   0.0 |  0.00
Comm    | 0.1539     | 0.59254    | 0.90179    |  35.4 | 15.52
Output  | 0.016456   | 0.01664    | 0.017483   |   0.3 |  0.44
Modify  | 0.0061989  | 0.0071108  | 0.0084994  |   1.0 |  0.19
Other   |            | 0.1009     |            |       |  2.64

Nlocal:    8960 ave 8960 max 8960 min
Histogram: 6 0 0 0 0 0 0 0 0 0
Nghost:    11722.3 ave 13895 max 10552 min
Histogram: 4 0 0 0 0 0 0 0 0 2
Neighs:    979179 ave 1.0079e+06 max 940768 min
Histogram: 2 0 0 0 0 0 0 2 0 2
FullNghs:  0 ave 0 max 0 min
Histogram: 6 0 0 0 0 0 0 0 0 0

Total # of neighbors = 5875072
Ave neighs/atom = 109.283
Neighbor list builds = 0
Dangerous builds = 0
variable Ef equal "c_eatoms"
variable Cf equal 1.60217657e-16
variable A equal (cella*cellb)*1e-20
variable SFE equal ((${Ef}-${Eo})*${Cf})/${A}
variable SFE equal ((-238139.431620748-${Eo})*${Cf})/${A}
variable SFE equal ((-238139.431620748--238159.276198223)*${Cf})/${A}
variable SFE equal ((-238139.431620748--238159.276198223)*1.60217657e-16)/${A}
variable SFE equal ((-238139.431620748--238159.276198223)*1.60217657e-16)/4.80619470511564e-17

#variable Ef equal "c_eatoms" computes the final energy of the system after sliding is done
#variable A is the area of the Stacking fault plane
#variable Cf is the conversion factor of electro volts to millijoules
#variable SFE is the stacking-fault energy of the system
####################################
# SIMULATION DONE
print "All done"
All done
print "Initial energy of atoms = ${Eo} eV"
Initial energy of atoms = -238159.276198223 eV
print "Final energy of atoms = ${Ef} eV"
Final energy of atoms = -238139.431620748 eV
print "Stacking-fault energy = ${SFE} mJ/m^2"
Stacking-fault energy = 66.1532023206971 mJ/m^2
Total wall time: 0:00:04
